LAMMPS 2d dimer data file

25 atoms
1 bonds
0 angles
0 dihedrals
0 impropers

2 atom types
1 bond types
0 angle types
0 dihedral types
0 improper types

-2.98807 2.98807 xlo xhi
-2.98807 2.98807 ylo yhi
-0.1 0.1 zlo zhi

Masses

1 1.0
2 1.0

Atoms

1 2 2 0.0 0.0 0
2 2 2 0.0 1.23 0
3 1 1 0.585537 0.193475 0
4 1 1 0.810623 0.173531 0
5 1 1 0.484983 0.151863 0
6 1 1 0.366957 0.491736 0
7 1 1 0.910094 0.265257 0
8 1 1 0.893188 0.220351 0
9 1 1 0.631798 0.571077 0
10 1 1 0.332158 0.104455 0
11 1 1 0.502931 0.567394 0
12 1 1 0.854165 0.0401409 0
13 1 1 0.108022 0.639396 0
14 1 1 0.013111 0.720184 0
15 1 1 0.101814 0.482945 0
16 1 1 0.254355 0.676697 0
17 1 1 0.896782 0.759896 0
18 1 1 0.720292 0.907623 0
19 1 1 0.928611 0.377663 0
20 1 1 0.899756 0.77888 0
21 1 1 0.324255 0.194231 0
22 1 1 0.995553 0.161296 0
23 1 1 0.708034 0.501519 0
24 1 1 0.936301 0.716323 0
25 1 1 0.10519 0.209205 0

Bonds

1 1 1 2
