LAMMPS (6 Oct 2011)
units lj



atom_style bond #no stiffness

boundary        p p p

#lattice fcc 0.6

#region mybox block 0.0 2.46621 0.0 2.4662 0.0 2.4662

#create_box 2 mybox

#boundary        p p p

#create_atoms 2 random 9 938391 





###

# Pair interactions require lists of neighbours to be calculated

###

#neighbor 0.3 bin

neighbor 1.9 bin

neigh_modify every 1 delay 1 check yes 





### READ "start" data file ###

read_data dimer.data

  1 = max bonds/atom
  orthogonal box = (-1.23311 -1.23311 -1.23311) to (1.23311 1.23311 1.23311)
  1 by 1 by 1 processor grid
  9 atoms
  1 bonds
  1 = max # of 1-2 neighbors
  0 = max # of 1-3 neighbors
  0 = max # of 1-4 neighbors
  1 = max # of special neighbors
######################

#lattice hex 0.6



group all type 1

9 atoms in group all
#dump   1   all   custom   1000   dimer.dump.*  id  x y z  ix iy iz

#group dimer id  == 1

#group dimer id == 2



#  1.12246 = 2^(1/6) is the minimum of the potential



pair_style      lj/cut 1.12246152962189

pair_modify shift yes

pair_coeff      * * 1.0 1.0 



bond_style double_well

bond_coeff   *   3.0 0.25 1.12246152962189 





fix 1 all   nve   ###NVE ensemble

#fix 2 all temp/rescale 100 1.0 1.0 0.2 0.5

#fix 1 all   nph   aniso   0.01 0.01  0.01 0.01  0.01 0.01   20.0   ###NPH ensemble

fix 2 all   langevin   1.0 1.0   2.0   424242   ###Langevin integrator Tstart Tstop 1/friction rndseed



##### Sample thermodynamic info  (temperature, energy, pressure, etc.) #####

thermo 10

thermo_style   custom   step  temp  epair  ebond pe ke etotal emol  press pxx pyy pzz  vol

############################################################################



###

# set timestep of integrator

###

timestep 0.0001 #0.012 #0.001

dump   1   all   custom   100000   dimer.dump.*  id  x y z  ix iy iz

###

# run integration for a number of steps

###

#run 300000

run 100
Memory usage per processor = 2.17056 Mbytes
Step Temp E_pair E_bond PotEng KinEng TotEng E_mol Press Pxx Pyy Pzz Volume 
       0            0     0.377758  0.027922163   0.40568016            0   0.40568016  0.027922163    2.3281956    1.6637948     4.201913    1.1188789    15.000145 
      10 0.0017334127   0.37754979  0.027834422   0.40538421  0.002311217   0.40769543  0.027834422    2.3277642    1.6632165    4.2013733    1.1187028    15.000145 
      20 0.0044699408   0.37684387  0.027633216   0.40447709 0.0059599211   0.41043701  0.027633216    2.3253885    1.6606417    4.1968971    1.1186267    15.000145 
      30 0.0047136679   0.37609733  0.027413832   0.40351116 0.0062848905   0.40979605  0.027413832    2.3215426    1.6574546    4.1901693    1.1170038    15.000145 
      40 0.0075660293   0.37515959  0.027249341   0.40240894  0.010088039   0.41249697  0.027249341    2.3188097    1.6563873    4.1834886    1.1165532    15.000145 
      50  0.012068771   0.37380806  0.027017144   0.40082521  0.016091695    0.4169169  0.027017144    2.3149836    1.6535701    4.1744459    1.1169347    15.000145 
      60   0.01566779   0.37214988  0.026703101   0.39885298  0.020890387   0.41974337  0.026703101    2.3091426    1.6479869    4.1622602    1.1171808    15.000145 
      70  0.022348082   0.37025053  0.026216476   0.39646701  0.029797443   0.42626445  0.026216476    2.3031593    1.6428708    4.1496743    1.1169329    15.000145 
      80  0.025119474    0.3680073  0.025711036   0.39371833  0.033492632   0.42721096  0.025711036    2.2936342    1.6352267      4.13341    1.1122658    15.000145 
      90  0.027333613   0.36571875  0.025164709   0.39088346  0.036444818   0.42732828  0.025164709    2.2832371    1.6301713    4.1135808    1.1059593    15.000145 
     100  0.030125695   0.36324169  0.024621113    0.3878628  0.040167593    0.4280304  0.024621113     2.272548    1.6250457    4.0928569    1.0997413    15.000145 
Loop time of 0.00103784 on 1 procs for 100 steps with 9 atoms

Pair  time (%) = 0.000295401 (28.4631)
Bond  time (%) = 2.76566e-05 (2.66483)
Neigh time (%) = 0 (0)
Comm  time (%) = 0.000307798 (29.6577)
Outpt time (%) = 0.000141859 (13.6687)
Other time (%) = 0.000265121 (25.5456)

Nlocal:    9 ave 9 max 9 min
Histogram: 1 0 0 0 0 0 0 0 0 0
Nghost:    370 ave 370 max 370 min
Histogram: 1 0 0 0 0 0 0 0 0 0
Neighs:    295 ave 295 max 295 min
Histogram: 1 0 0 0 0 0 0 0 0 0

Total # of neighbors = 295
Ave neighs/atom = 32.7778
Ave special neighs/atom = 0.222222
Neighbor list builds = 0
Dangerous builds = 0
run 100
Memory usage per processor = 2.17056 Mbytes
Step Temp E_pair E_bond PotEng KinEng TotEng E_mol Press Pxx Pyy Pzz Volume 
     100  0.030125695   0.36324169  0.024621113    0.3878628  0.040167593    0.4280304  0.024621113     2.272548    1.6250457    4.0928569    1.0997413    15.000145 
     110  0.029137462    0.3607571  0.024145618   0.38490272  0.038849949   0.42375267  0.024145618    2.2608207    1.6171771    4.0722341    1.0930511    15.000145 
     120  0.028846308   0.35832728  0.023668543   0.38199582  0.038461745   0.42045757  0.023668543    2.2499038    1.6113245    4.0527807    1.0856063    15.000145 
     130   0.03034962   0.35582502  0.023071136   0.37889616   0.04046616   0.41936232  0.023071136    2.2387643    1.6035003    4.0340607    1.0787319    15.000145 
     140   0.02898819    0.3533658  0.022499905   0.37586571   0.03865092   0.41451663  0.022499905    2.2263944     1.594729    4.0103949    1.0740592    15.000145 
     150  0.036189483   0.35051479  0.021951215     0.372466  0.048252643   0.42071864  0.021951215    2.2173651    1.5921413    3.9919283    1.0680256    15.000145 
     160  0.040470581   0.34755999  0.021371355   0.36893135  0.053960775   0.42289212  0.021371355     2.206216    1.5855793    3.9683183    1.0647504    15.000145 
     170  0.048819234   0.34442507  0.020816476   0.36524154  0.065092313   0.43033386  0.020816476    2.1969704    1.5835869     3.945666    1.0616582    15.000145 
     180   0.05231768   0.34100689  0.020244755   0.36125165  0.069756907   0.43100856  0.020244755    2.1840369    1.5745054    3.9202582     1.057347    15.000145 
     190  0.057378434   0.33754966  0.019663386   0.35721305  0.076504579   0.43371763  0.019663386    2.1717005    1.5695514    3.8923936    1.0531565    15.000145 
     200   0.06085076   0.33390859  0.019137178   0.35304576  0.081134347   0.43418011  0.019137178    2.1583881    1.5675602    3.8607638    1.0468401    15.000145 
Loop time of 0.00100017 on 1 procs for 100 steps with 9 atoms

Pair  time (%) = 0.000296116 (29.6067)
Bond  time (%) = 2.12193e-05 (2.12157)
Neigh time (%) = 0 (0)
Comm  time (%) = 0.000304461 (30.441)
Outpt time (%) = 0.000138998 (13.8975)
Other time (%) = 0.000239372 (23.9333)

Nlocal:    9 ave 9 max 9 min
Histogram: 1 0 0 0 0 0 0 0 0 0
Nghost:    370 ave 370 max 370 min
Histogram: 1 0 0 0 0 0 0 0 0 0
Neighs:    295 ave 295 max 295 min
Histogram: 1 0 0 0 0 0 0 0 0 0

Total # of neighbors = 295
Ave neighs/atom = 32.7778
Ave special neighs/atom = 0.222222
Neighbor list builds = 0
Dangerous builds = 0
run 100
Memory usage per processor = 2.17056 Mbytes
Step Temp E_pair E_bond PotEng KinEng TotEng E_mol Press Pxx Pyy Pzz Volume 
     200   0.06085076   0.33390859  0.019137178   0.35304576  0.081134347   0.43418011  0.019137178    2.1583881    1.5675602    3.8607638    1.0468401    15.000145 
     210  0.065566431   0.33017755  0.018584703   0.34876225  0.087421908   0.43618416  0.018584703    2.1451041    1.5667021     3.827689    1.0409213    15.000145 
     220  0.072744617   0.32627964  0.017952997   0.34423264  0.096992822   0.44122546  0.017952997     2.131774    1.5630475    3.7965236    1.0357509    15.000145 
     230  0.077285453   0.32231438  0.017288112   0.33960249   0.10304727   0.44264976  0.017288112    2.1162897    1.5536018    3.7632608    1.0320066    15.000145 
     240  0.081548615   0.31821259  0.016625089   0.33483768   0.10873149   0.44356916  0.016625089    2.1002304    1.5450444    3.7316394    1.0240075    15.000145 
     250  0.092460041    0.3139269  0.015907594   0.32983449   0.12328005   0.45311455  0.015907594    2.0868214    1.5459959    3.6925455    1.0219228    15.000145 
     260  0.099308864   0.30946284  0.015209759    0.3246726   0.13241182   0.45708442  0.015209759    2.0706144     1.532272    3.6624138    1.0171575    15.000145 
     270  0.096626425   0.30504253  0.014505975    0.3195485   0.12883523   0.44838373  0.014505975    2.0492989    1.5235974     3.613786    1.0105134    15.000145 
     280   0.10164525   0.30070994  0.013784071   0.31449401     0.135527   0.45002101  0.013784071    2.0318972    1.5188838    3.5704964    1.0063114    15.000145 
     290   0.10897008    0.2963117  0.013034339   0.30934604   0.14529343   0.45463947  0.013034339    2.0149516    1.5099933    3.5366063   0.99825508    15.000145 
     300   0.11052304   0.29179882  0.012339881    0.3041387   0.14736405   0.45150275  0.012339881     1.994766      1.49544    3.4993241   0.98953396    15.000145 
Loop time of 0.00100207 on 1 procs for 100 steps with 9 atoms

Pair  time (%) = 0.000312567 (31.192)
Bond  time (%) = 1.12057e-05 (1.11825)
Neigh time (%) = 0 (0)
Comm  time (%) = 0.000299454 (29.8834)
Outpt time (%) = 0.000131845 (13.1573)
Other time (%) = 0.000247002 (24.6491)

Nlocal:    9 ave 9 max 9 min
Histogram: 1 0 0 0 0 0 0 0 0 0
Nghost:    370 ave 370 max 370 min
Histogram: 1 0 0 0 0 0 0 0 0 0
Neighs:    295 ave 295 max 295 min
Histogram: 1 0 0 0 0 0 0 0 0 0

Total # of neighbors = 295
Ave neighs/atom = 32.7778
Ave special neighs/atom = 0.222222
Neighbor list builds = 0
Dangerous builds = 0
run 100
Memory usage per processor = 2.17056 Mbytes
Step Temp E_pair E_bond PotEng KinEng TotEng E_mol Press Pxx Pyy Pzz Volume 
     300   0.11052304   0.29179882  0.012339881    0.3041387   0.14736405   0.45150275  0.012339881     1.994766      1.49544    3.4993241   0.98953396    15.000145 
     310    0.1306438   0.28706987  0.011654197   0.29872406   0.17419174    0.4729158  0.011654197     1.983545    1.4975864    3.4702935   0.98275507    15.000145 
     320   0.14764749    0.2821123  0.010869134   0.29298143   0.19686331   0.48984474  0.010869134    1.9685165    1.4978808    3.4335502   0.97411855    15.000145 
     330   0.15706484   0.27701684  0.010127762    0.2871446   0.20941979   0.49656439  0.010127762    1.9490476    1.4863121    3.3934904   0.96734023    15.000145 
     340   0.15583655   0.27194832 0.0094632629   0.28141159   0.20778207   0.48919365 0.0094632629    1.9245512    1.4737076    3.3418608   0.95808509    15.000145 
     350   0.16804724   0.26697562 0.0087920934   0.27576771   0.22406299   0.49983071 0.0087920934    1.9070491    1.4642143    3.3062668    0.9506662    15.000145 
     360   0.18146098   0.26197967 0.0080737163   0.27005338   0.24194798   0.51200136 0.0080737163    1.8894318    1.4559925    3.2673185   0.94498449    15.000145 
     370   0.18525661    0.2570625 0.0073678149   0.26443031   0.24700881   0.51143912 0.0073678149    1.8668133    1.4466614    3.2170792   0.93669915    15.000145 
     380   0.18276677    0.2522206 0.0066775393   0.25889814   0.24368903   0.50258717 0.0066775393    1.8409421    1.4286232    3.1622415   0.93196165    15.000145 
     390   0.18025376   0.24748655 0.0060802126   0.25356676   0.24033834    0.4939051 0.0060802126    1.8162993    1.4116513    3.1113898    0.9258568    15.000145 
     400   0.18222754   0.24293895 0.0054881229   0.24842708   0.24297006   0.49139713 0.0054881229    1.7944888    1.3992571    3.0601663    0.9240428    15.000145 
Loop time of 0.00100112 on 1 procs for 100 steps with 9 atoms

Pair  time (%) = 0.000291586 (29.126)
Bond  time (%) = 2.69413e-05 (2.69112)
Neigh time (%) = 0 (0)
Comm  time (%) = 0.000305891 (30.5549)
Outpt time (%) = 0.000136137 (13.5985)
Other time (%) = 0.000240564 (24.0295)

Nlocal:    9 ave 9 max 9 min
Histogram: 1 0 0 0 0 0 0 0 0 0
Nghost:    370 ave 370 max 370 min
Histogram: 1 0 0 0 0 0 0 0 0 0
Neighs:    294 ave 294 max 294 min
Histogram: 1 0 0 0 0 0 0 0 0 0

Total # of neighbors = 294
Ave neighs/atom = 32.6667
Ave special neighs/atom = 0.222222
Neighbor list builds = 0
Dangerous builds = 0
run 100
Memory usage per processor = 2.17056 Mbytes
Step Temp E_pair E_bond PotEng KinEng TotEng E_mol Press Pxx Pyy Pzz Volume 
     400   0.18222754   0.24293895 0.0054881229   0.24842708   0.24297006   0.49139713 0.0054881229    1.7944888    1.3992571    3.0601663    0.9240428    15.000145 
     410   0.18882416   0.23841669 0.0049488103    0.2433655   0.25176555   0.49513105 0.0049488103    1.7755795    1.3915945    3.0220369    0.9131072    15.000145 
     420   0.19845605   0.23395228 0.0044271768   0.23837946   0.26460807   0.50298753 0.0044271768    1.7583903    1.3881999     2.982066   0.90490515    15.000145 
     430   0.19183046    0.2295625 0.0039557369   0.23351823   0.25577394   0.48929218 0.0039557369     1.733147    1.3770975    2.9222127   0.90013076    15.000145 
     440   0.20740964   0.22517254 0.0035460002   0.22871854   0.27654619   0.50526473 0.0035460002    1.7202175    1.3777442    2.8887731   0.89413525    15.000145 
     450   0.20082149   0.22078049 0.0031987365   0.22397923   0.26776199   0.49174122 0.0031987365    1.6962173     1.374392     2.832634   0.88162581    15.000145 
     460   0.20199809    0.2165654 0.0029042259   0.21946963   0.26933078   0.48880041 0.0029042259    1.6776585    1.3652096    2.7930196   0.87474623    15.000145 
     470   0.21595024   0.21239056 0.0026365538   0.21502711   0.28793365   0.50296076 0.0026365538    1.6662692     1.369601    2.7633464   0.86586002    15.000145 
     480   0.21249719   0.20826083 0.0023761741     0.210637   0.28332958   0.49396659 0.0023761741    1.6454933    1.3691141    2.7114634   0.85590247    15.000145 
     490    0.2167105   0.20425797 0.0021257932   0.20638376   0.28894734    0.4953311 0.0021257932    1.6288908    1.3671492    2.6690726   0.85045052    15.000145 
     500   0.22088221   0.20016274 0.0019009544    0.2020637   0.29450961   0.49657331 0.0019009544    1.6117156    1.3733612    2.6207836   0.84100186    15.000145 
Loop time of 0.00100708 on 1 procs for 100 steps with 9 atoms

Pair  time (%) = 0.000304461 (30.232)
Bond  time (%) = 1.66893e-05 (1.6572)
Neigh time (%) = 0 (0)
Comm  time (%) = 0.000306129 (30.3977)
Outpt time (%) = 0.000139952 (13.8968)
Other time (%) = 0.000239849 (23.8163)

Nlocal:    9 ave 9 max 9 min
Histogram: 1 0 0 0 0 0 0 0 0 0
Nghost:    370 ave 370 max 370 min
Histogram: 1 0 0 0 0 0 0 0 0 0
Neighs:    295 ave 295 max 295 min
Histogram: 1 0 0 0 0 0 0 0 0 0

Total # of neighbors = 295
Ave neighs/atom = 32.7778
Ave special neighs/atom = 0.222222
Neighbor list builds = 0
Dangerous builds = 0
run 100
Memory usage per processor = 2.17056 Mbytes
Step Temp E_pair E_bond PotEng KinEng TotEng E_mol Press Pxx Pyy Pzz Volume 
     500   0.22088221   0.20016274 0.0019009544    0.2020637   0.29450961   0.49657331 0.0019009544    1.6117156    1.3733612    2.6207836   0.84100186    15.000145 
     510   0.22858625   0.19610762  0.001707044   0.19781466   0.30478166   0.50259633  0.001707044    1.5969022    1.3658507    2.5892339   0.83562188    15.000145 
     520   0.23946978   0.19197561 0.0015409504   0.19351656   0.31929304    0.5128096 0.0015409504    1.5837944    1.3638008    2.5532116   0.83437072    15.000145 
     530   0.25942243   0.18776241 0.0014121092   0.18917452   0.34589658    0.5350711 0.0014121092    1.5758938    1.3668986      2.52643   0.83435273    15.000145 
     540   0.26262048   0.18353825 0.0013068167   0.18484506   0.35016064    0.5350057 0.0013068167    1.5594109    1.3691149    2.4787713    0.8303464    15.000145 
     550    0.2649077   0.17943804 0.0011999643   0.18063801   0.35321027   0.53384827 0.0011999643    1.5425814    1.3732779    2.4265922   0.82787412    15.000145 
     560   0.27630205   0.17549212   0.00109956   0.17659168   0.36840273   0.54499441   0.00109956    1.5309952    1.3727775    2.3976217   0.82258625    15.000145 
     570   0.27833681   0.17165506 0.0009992607   0.17265432   0.37111574   0.54377006 0.0009992607    1.5144092    1.3749167    2.3515742   0.81673673    15.000145 
     580   0.28012411   0.16794187 0.00090608673   0.16884796   0.37349881   0.54234677 0.00090608673     1.498141    1.3745996    2.3096185   0.81020484    15.000145 
     590    0.2795637   0.16438593 0.00081444637   0.16520037    0.3727516   0.53795198 0.00081444637    1.4808681    1.3730667    2.2652129    0.8043246    15.000145 
     600   0.29366247   0.16097407 0.00071995036   0.16169402   0.39154996   0.55324398 0.00071995036    1.4715759    1.3851748    2.2302997   0.79925316    15.000145 
Loop time of 0.00100303 on 1 procs for 100 steps with 9 atoms

Pair  time (%) = 0.000307798 (30.687)
Bond  time (%) = 1.88351e-05 (1.87782)
Neigh time (%) = 0 (0)
Comm  time (%) = 0.000294447 (29.3558)
Outpt time (%) = 0.00013423 (13.3825)
Other time (%) = 0.000247717 (24.6969)

Nlocal:    9 ave 9 max 9 min
Histogram: 1 0 0 0 0 0 0 0 0 0
Nghost:    370 ave 370 max 370 min
Histogram: 1 0 0 0 0 0 0 0 0 0
Neighs:    295 ave 295 max 295 min
Histogram: 1 0 0 0 0 0 0 0 0 0

Total # of neighbors = 295
Ave neighs/atom = 32.7778
Ave special neighs/atom = 0.222222
Neighbor list builds = 0
Dangerous builds = 0
run 100
Memory usage per processor = 2.17056 Mbytes
Step Temp E_pair E_bond PotEng KinEng TotEng E_mol Press Pxx Pyy Pzz Volume 
     600   0.29366247   0.16097407 0.00071995036   0.16169402   0.39154996   0.55324398 0.00071995036    1.4715759    1.3851748    2.2302997   0.79925316    15.000145 
     610   0.29159012   0.15766222 0.00062165155   0.15828387   0.38878683    0.5470707 0.00062165155    1.4535032    1.3824426    2.1791922   0.79887498    15.000145 
     620   0.29106719   0.15440329 0.00053819103   0.15494148   0.38808959   0.54303107 0.00053819103    1.4364473    1.3765312    2.1289354   0.80387534    15.000145 
     630   0.28816619   0.15126275 0.00046528945   0.15172804   0.38422159   0.53594963 0.00046528945    1.4185941    1.3731458    2.0797704   0.80286605    15.000145 
     640   0.28640505   0.14827239 0.00039849103   0.14867088    0.3818734   0.53054428 0.00039849103    1.4018311    1.3814881     2.031791   0.79221429    15.000145 
     650   0.29248618   0.14538146 0.00034421062   0.14572567   0.38998158   0.53570725 0.00034421062    1.3898448    1.3925752     1.990318   0.78664114    15.000145 
     660   0.29712698   0.14265853 0.00029860071   0.14295713   0.39616931   0.53912644 0.00029860071    1.3780371    1.3973873    1.9480085   0.78871545    15.000145 
     670    0.2951611   0.13987758 0.00026453652   0.14014212   0.39354814   0.53369025 0.00026453652    1.3626313     1.399334    1.8992398   0.78931996    15.000145 
     680   0.30200106   0.13725563 0.00022846554   0.13748409   0.40266808   0.54015217 0.00022846554    1.3522624    1.4097967     1.858189   0.78880146    15.000145 
     690   0.30390031   0.13478961 0.0001901947    0.1349798   0.40520042   0.54018022 0.0001901947     1.339475    1.4175564    1.8244191    0.7764496    15.000145 
     700   0.30452708   0.13242793 0.00015810717   0.13258604   0.40603611   0.53862215 0.00015810717    1.3263443     1.418827    1.7907475   0.76945853    15.000145 
Loop time of 0.00101209 on 1 procs for 100 steps with 9 atoms

Pair  time (%) = 0.000299692 (29.6113)
Bond  time (%) = 1.85966e-05 (1.83746)
Neigh time (%) = 0 (0)
Comm  time (%) = 0.000300884 (29.7291)
Outpt time (%) = 0.000143528 (14.1814)
Other time (%) = 0.000249386 (24.6408)

Nlocal:    9 ave 9 max 9 min
Histogram: 1 0 0 0 0 0 0 0 0 0
Nghost:    370 ave 370 max 370 min
Histogram: 1 0 0 0 0 0 0 0 0 0
Neighs:    297 ave 297 max 297 min
Histogram: 1 0 0 0 0 0 0 0 0 0

Total # of neighbors = 297
Ave neighs/atom = 33
Ave special neighs/atom = 0.222222
Neighbor list builds = 0
Dangerous builds = 0
run 100
Memory usage per processor = 2.17056 Mbytes
Step Temp E_pair E_bond PotEng KinEng TotEng E_mol Press Pxx Pyy Pzz Volume 
     700   0.30452708   0.13242793 0.00015810717   0.13258604   0.40603611   0.53862215 0.00015810717    1.3263443     1.418827    1.7907475   0.76945853    15.000145 
     710   0.30295553   0.13014449 0.00012910946    0.1302736   0.40394071   0.53421431 0.00012910946    1.3121093    1.4172455    1.7528297   0.76625257    15.000145 
     720    0.3011758   0.12791464 0.00010549006   0.12802013   0.40156773   0.52958786 0.00010549006    1.2979821    1.4228732    1.7085469   0.76252615    15.000145 
     730   0.29956129   0.12576769 8.7352526e-05   0.12585505   0.39941506    0.5252701 8.7352526e-05    1.2844711     1.422485    1.6766923   0.75423608    15.000145 
     740   0.29849478   0.12380959 6.8648829e-05   0.12387824   0.39799305   0.52187128 6.8648829e-05    1.2716174    1.4280637    1.6390501   0.74773837    15.000145 
     750   0.30463421   0.12194168 5.0739585e-05   0.12199242   0.40617895   0.52817137 5.0739585e-05    1.2625215     1.433429    1.6034792   0.75065626    15.000145 
     760   0.32235379   0.12016782 3.4330539e-05   0.12020215   0.42980506   0.55000721 3.4330539e-05    1.2596526     1.444406    1.5840306   0.75052118    15.000145 
     770   0.31509777   0.11842953 2.2367561e-05    0.1184519   0.42013036   0.53858226 2.2367561e-05    1.2436541    1.4435498    1.5419045   0.74550809    15.000145 
     780   0.32059211   0.11680552 1.2635275e-05   0.11681816   0.42745615   0.54427431 1.2635275e-05    1.2347315    1.4486597    1.5078277   0.74770711    15.000145 
     790   0.31554877   0.11523871 6.3086574e-06   0.11524502   0.42073169   0.53597671 6.3086574e-06    1.2204786    1.4520489    1.4685924    0.7407946    15.000145 
     800   0.31158474   0.11375024 1.5970278e-06   0.11375183   0.41544633   0.52919816 1.5970278e-06    1.2069315     1.449189    1.4307621   0.74084323    15.000145 
Loop time of 0.00100493 on 1 procs for 100 steps with 9 atoms

Pair  time (%) = 0.000295401 (29.395)
Bond  time (%) = 2.16961e-05 (2.15896)
Neigh time (%) = 0 (0)
Comm  time (%) = 0.000308037 (30.6524)
Outpt time (%) = 0.000142813 (14.2112)
Other time (%) = 0.000236988 (23.5824)

Nlocal:    9 ave 9 max 9 min
Histogram: 1 0 0 0 0 0 0 0 0 0
Nghost:    370 ave 370 max 370 min
Histogram: 1 0 0 0 0 0 0 0 0 0
Neighs:    296 ave 296 max 296 min
Histogram: 1 0 0 0 0 0 0 0 0 0

Total # of neighbors = 296
Ave neighs/atom = 32.8889
Ave special neighs/atom = 0.222222
Neighbor list builds = 0
Dangerous builds = 0
run 100
Memory usage per processor = 2.17056 Mbytes
Step Temp E_pair E_bond PotEng KinEng TotEng E_mol Press Pxx Pyy Pzz Volume 
     800   0.31158474   0.11375024 1.5970278e-06   0.11375183   0.41544633   0.52919816 1.5970278e-06    1.2069315     1.449189    1.4307621   0.74084323    15.000145 
     810   0.31998984   0.11243189 1.4458222e-07   0.11243204   0.42665312   0.53908516 1.4458222e-07    1.2000682    1.4551934    1.4121754   0.73283572    15.000145 
     820   0.32981078   0.11124468 3.7803636e-06   0.11124846   0.43974771   0.55099617 3.7803636e-06    1.1945811    1.4532699    1.3963995   0.73407405    15.000145 
     830   0.32891686   0.11014667 1.1356766e-05   0.11015802   0.43855581   0.54871384 1.1356766e-05    1.1839319    1.4615398    1.3615531    0.7287028    15.000145 
     840    0.3170147   0.10918329 2.4624513e-05   0.10920792   0.42268626   0.53189418 2.4624513e-05    1.1675426    1.4570648    1.3289856   0.71657727    15.000145 
     850   0.31832624   0.10832493 4.3359939e-05   0.10836829   0.42443499   0.53280328 4.3359939e-05    1.1584342     1.455521    1.2960098   0.72377199    15.000145 
     860   0.31834747   0.10758267 6.7127422e-05    0.1076498    0.4244633    0.5321131 6.7127422e-05    1.1490484    1.4587421    1.2601612   0.72824182    15.000145 
     870   0.31603956    0.1068035 9.0527604e-05   0.10689403   0.42138608   0.52828012 9.0527604e-05    1.1386453    1.4666654    1.2246389   0.72463153    15.000145 
     880   0.31597431   0.10601513 0.00011267927   0.10612781   0.42129907   0.52742689 0.00011267927    1.1296397    1.4702267    1.2000096    0.7186828    15.000145 
     890   0.30856698    0.1052422 0.00013467129   0.10537687   0.41142264   0.51679951 0.00013467129    1.1168905    1.4692398    1.1650668   0.71636471    15.000145 
     900   0.31155289    0.1044902 0.00014437468   0.10463457   0.41540385   0.52003843 0.00014437468     1.110789    1.4767753    1.1363463   0.71924537    15.000145 
Loop time of 0.000994921 on 1 procs for 100 steps with 9 atoms

Pair  time (%) = 0.000287771 (28.924)
Bond  time (%) = 2.14577e-05 (2.15672)
Neigh time (%) = 0 (0)
Comm  time (%) = 0.000291109 (29.2595)
Outpt time (%) = 0.000141621 (14.2344)
Other time (%) = 0.000252962 (25.4254)

Nlocal:    9 ave 9 max 9 min
Histogram: 1 0 0 0 0 0 0 0 0 0
Nghost:    370 ave 370 max 370 min
Histogram: 1 0 0 0 0 0 0 0 0 0
Neighs:    295 ave 295 max 295 min
Histogram: 1 0 0 0 0 0 0 0 0 0

Total # of neighbors = 295
Ave neighs/atom = 32.7778
Ave special neighs/atom = 0.222222
Neighbor list builds = 0
Dangerous builds = 0
run 100
Memory usage per processor = 2.17056 Mbytes
Step Temp E_pair E_bond PotEng KinEng TotEng E_mol Press Pxx Pyy Pzz Volume 
     900   0.31155289    0.1044902 0.00014437468   0.10463457   0.41540385   0.52003843 0.00014437468     1.110789    1.4767753    1.1363463   0.71924537    15.000145 
     910   0.31684897   0.10383967 0.00015226901   0.10399194   0.42246529   0.52645724 0.00015226901    1.1063754    1.4867191    1.1169797   0.71542753    15.000145 
     920   0.32898323   0.10328327 0.00016535341   0.10344863   0.43864431   0.54209293 0.00016535341    1.1054773    1.5028622    1.0970535   0.71651631    15.000145 
     930   0.32702848   0.10274624 0.00017247588   0.10291871   0.43603797   0.53895668 0.00017247588    1.0975868    1.5164484    1.0597284   0.71658371    15.000145 
     940    0.3202917   0.10227251 0.00017490847   0.10244742    0.4270556   0.52950302 0.00017490847    1.0876531    1.5122057     1.038816   0.71193748    15.000145 
     950   0.33071647   0.10202559 0.00018141933   0.10220701   0.44095529    0.5431623 0.00018141933    1.0875579    1.5256002    1.0270402   0.71003325    15.000145 
     960   0.32288059   0.10180778 0.00018580062   0.10199358   0.43050746   0.53250104 0.00018580062    1.0778971    1.5324252   0.98928052   0.71198556    15.000145 
     970   0.33341375   0.10164137 0.00019522606    0.1018366   0.44455167   0.54638827 0.00019522606    1.0778312    1.5404266   0.98027234    0.7127946    15.000145 
     980   0.33186972    0.1015698 0.00019835109   0.10176815   0.44249296   0.54426112 0.00019835109     1.072175    1.5455053   0.95367968    0.7173401    15.000145 
     990   0.32354729    0.1016062 0.00019599401    0.1018022   0.43139638   0.53319858 0.00019599401    1.0637778     1.557169   0.92157498   0.71258943    15.000145 
    1000   0.32165466   0.10175275 0.00019228941   0.10194504   0.42887288   0.53081792 0.00019228941    1.0593372    1.5689891   0.89235908   0.71666335    15.000145 
Loop time of 0.000999928 on 1 procs for 100 steps with 9 atoms

Pair  time (%) = 0.000272036 (27.2055)
Bond  time (%) = 3.83854e-05 (3.83882)
Neigh time (%) = 0 (0)
Comm  time (%) = 0.000265121 (26.5141)
Outpt time (%) = 0.000142574 (14.2585)
Other time (%) = 0.000281811 (28.1831)

Nlocal:    9 ave 9 max 9 min
Histogram: 1 0 0 0 0 0 0 0 0 0
Nghost:    370 ave 370 max 370 min
Histogram: 1 0 0 0 0 0 0 0 0 0
Neighs:    294 ave 294 max 294 min
Histogram: 1 0 0 0 0 0 0 0 0 0

Total # of neighbors = 294
Ave neighs/atom = 32.6667
Ave special neighs/atom = 0.222222
Neighbor list builds = 0
Dangerous builds = 0
run 100
Memory usage per processor = 2.17056 Mbytes
Step Temp E_pair E_bond PotEng KinEng TotEng E_mol Press Pxx Pyy Pzz Volume 
    1000   0.32165466   0.10175275 0.00019228941   0.10194504   0.42887288   0.53081792 0.00019228941    1.0593372    1.5689891   0.89235908   0.71666335    15.000145 
    1010   0.32534558   0.10193082 0.0001842388   0.10211506    0.4337941   0.53590916 0.0001842388    1.0582281    1.5976561   0.86200556   0.71502251    15.000145 
    1020   0.33477406   0.10217519 0.00017007038   0.10234526   0.44636541   0.54871067 0.00017007038    1.0608868     1.625507     0.843592   0.71356157    15.000145 
    1030   0.33461754   0.10254332 0.00016398588   0.10270731   0.44615672   0.54886402 0.00016398588    1.0583076    1.6408972   0.81572459   0.71830107    15.000145 
    1040   0.31278677   0.10299154 0.00016023038   0.10315177   0.41704903    0.5202008 0.00016023038    1.0443179    1.6385128   0.79038018   0.70406075    15.000145 
    1050   0.33102183   0.10347516 0.0001545366    0.1036297   0.44136243   0.54499213 0.0001545366    1.0518831    1.6695765   0.78633879   0.69973392    15.000145 
    1060   0.32965307   0.10407305 0.00015066095   0.10422371   0.43953742   0.54376113 0.00015066095    1.0491927    1.6731707   0.77342593   0.70098129    15.000145 
    1070   0.32557332    0.1047319 0.00014736052   0.10487926   0.43409776   0.53897702 0.00014736052    1.0453028    1.6828581   0.74891797   0.70413226    15.000145 
    1080   0.33963693   0.10538215  0.000143884   0.10552603   0.45284924   0.55837527  0.000143884    1.0510293    1.7063363   0.73132007   0.71543146    15.000145 
    1090   0.35038548   0.10599368 0.00013494286   0.10612862   0.46718064   0.57330926 0.00013494286    1.0572229    1.7163888   0.73578559   0.71949429    15.000145 
    1100    0.3640177   0.10651228 0.00012107224   0.10663336   0.48535693   0.59199028 0.00012107224    1.0652603    1.7316828   0.73772195     0.726376    15.000145 
Loop time of 0.000994921 on 1 procs for 100 steps with 9 atoms

Pair  time (%) = 0.000295162 (29.6669)
Bond  time (%) = 1.38283e-05 (1.38989)
Neigh time (%) = 0 (0)
Comm  time (%) = 0.000307798 (30.937)
Outpt time (%) = 0.000136852 (13.7551)
Other time (%) = 0.00024128 (24.2511)

Nlocal:    9 ave 9 max 9 min
Histogram: 1 0 0 0 0 0 0 0 0 0
Nghost:    370 ave 370 max 370 min
Histogram: 1 0 0 0 0 0 0 0 0 0
Neighs:    294 ave 294 max 294 min
Histogram: 1 0 0 0 0 0 0 0 0 0

Total # of neighbors = 294
Ave neighs/atom = 32.6667
Ave special neighs/atom = 0.222222
Neighbor list builds = 0
Dangerous builds = 0
run 100
Memory usage per processor = 2.17056 Mbytes
Step Temp E_pair E_bond PotEng KinEng TotEng E_mol Press Pxx Pyy Pzz Volume 
    1100    0.3640177   0.10651228 0.00012107224   0.10663336   0.48535693   0.59199028 0.00012107224    1.0652603    1.7316828   0.73772195     0.726376    15.000145 
    1110   0.36471766   0.10694473 0.00011191353   0.10705665   0.48629021   0.59334685 0.00011191353    1.0654597    1.7482683   0.72359838   0.72451261    15.000145 
    1120    0.3649192   0.10742531 0.00010284771   0.10752816   0.48655893   0.59408709 0.00010284771    1.0654867    1.7509894   0.70824158   0.73722913    15.000145 
    1130   0.37030568   0.10790265 9.3989779e-05   0.10799664   0.49374091   0.60173755 9.3989779e-05    1.0680619    1.7585326   0.70907211   0.73658096    15.000145 
    1140   0.36466592   0.10821508 8.1322901e-05    0.1082964   0.48622123   0.59451763 8.1322901e-05    1.0642924     1.761108   0.69048665   0.74128254    15.000145 
    1150   0.37211329   0.10855109 7.009963e-05   0.10862118   0.49615105   0.60477223 7.009963e-05    1.0673237    1.7721003    0.6893563   0.74051436    15.000145 
    1160   0.36496424   0.10894962 6.0070494e-05   0.10900969   0.48661899   0.59562867 6.0070494e-05    1.0628571    1.7614418   0.69257223   0.73455712    15.000145 
    1170   0.35421276   0.10931437 5.190247e-05   0.10936627   0.47228369   0.58164996 5.190247e-05    1.0562078     1.756202   0.67805346   0.73436804    15.000145 
    1180   0.36449407   0.10960654 4.1783275e-05   0.10964833   0.48599209   0.59564042 4.1783275e-05    1.0607842    1.7610236   0.68380566   0.73752336    15.000145 
    1190   0.35768976   0.10988759 3.1048962e-05   0.10991864   0.47691968   0.58683832 3.1048962e-05    1.0565776    1.7680086   0.67058038   0.73114373    15.000145 
    1200   0.35334202   0.11012143 2.1492703e-05   0.11014292    0.4711227   0.58126562 2.1492703e-05    1.0537023    1.7673147   0.66504918   0.72874315    15.000145 
Loop time of 0.00098896 on 1 procs for 100 steps with 9 atoms

Pair  time (%) = 0.000287771 (29.0984)
Bond  time (%) = 2.45571e-05 (2.48312)
Neigh time (%) = 0 (0)
Comm  time (%) = 0.000265598 (26.8563)
Outpt time (%) = 0.000137329 (13.8862)
Other time (%) = 0.000273705 (27.676)

Nlocal:    9 ave 9 max 9 min
Histogram: 1 0 0 0 0 0 0 0 0 0
Nghost:    370 ave 370 max 370 min
Histogram: 1 0 0 0 0 0 0 0 0 0
Neighs:    292 ave 292 max 292 min
Histogram: 1 0 0 0 0 0 0 0 0 0

Total # of neighbors = 292
Ave neighs/atom = 32.4444
Ave special neighs/atom = 0.222222
Neighbor list builds = 0
Dangerous builds = 0
run 100
Memory usage per processor = 2.17056 Mbytes
Step Temp E_pair E_bond PotEng KinEng TotEng E_mol Press Pxx Pyy Pzz Volume 
    1200   0.35334202   0.11012143 2.1492703e-05   0.11014292    0.4711227   0.58126562 2.1492703e-05    1.0537023    1.7673147   0.66504918   0.72874315    15.000145 
    1210   0.34688651   0.11042312 1.4158797e-05   0.11043727   0.46251535   0.57295262 1.4158797e-05    1.0499494    1.7623031   0.66024797   0.72729711    15.000145 
    1220   0.34574988   0.11073436 9.0181557e-06   0.11074338   0.46099984   0.57174322 9.0181557e-06    1.0487765    1.7628062   0.64841567   0.73510761    15.000145 
    1230   0.35551999   0.11104982 4.8041118e-06   0.11105463   0.47402665   0.58508128 4.8041118e-06    1.0533931    1.7759958    0.6453812   0.73880225    15.000145 
    1240   0.35280258   0.11123549 1.4376599e-06   0.11123693   0.47040344   0.58164037 1.4376599e-06    1.0509811    1.7697096   0.63154529   0.75168825    15.000145 
    1250   0.35436088   0.11145508 5.1219826e-09   0.11145509   0.47248117   0.58393626 5.1219826e-09    1.0522097    1.7766874   0.62802185   0.75191986    15.000145 
    1260   0.35296466   0.11172523 9.1576413e-07   0.11172615   0.47061955   0.58234569 9.1576413e-07    1.0522953     1.781483   0.62055638   0.75484657    15.000145 
    1270   0.33924948   0.11206239 2.7567036e-06   0.11206514   0.45233264   0.56439779 2.7567036e-06    1.0470915    1.7777942   0.61912066   0.74435975    15.000145 
    1280    0.3269175   0.11243431 4.5373163e-06   0.11243885      0.43589   0.54832885 4.5373163e-06    1.0424255    1.7827158   0.59824368   0.74631697    15.000145 
    1290   0.33165315   0.11264655 7.2094473e-06   0.11265376   0.44220419   0.55485795 7.2094473e-06     1.046286    1.7805988   0.61322828   0.74503106    15.000145 
    1300   0.33358119   0.11281016 9.4914289e-06   0.11281965   0.44477492   0.55759458 9.4914289e-06    1.0480457    1.7828729   0.61571886   0.74554542    15.000145 
Loop time of 0.000990868 on 1 procs for 100 steps with 9 atoms

Pair  time (%) = 0.000284433 (28.7055)
Bond  time (%) = 2.00272e-05 (2.02117)
Neigh time (%) = 0 (0)
Comm  time (%) = 0.000309706 (31.256)
Outpt time (%) = 0.000141382 (14.2685)
Other time (%) = 0.000235319 (23.7488)

Nlocal:    9 ave 9 max 9 min
Histogram: 1 0 0 0 0 0 0 0 0 0
Nghost:    370 ave 370 max 370 min
Histogram: 1 0 0 0 0 0 0 0 0 0
Neighs:    292 ave 292 max 292 min
Histogram: 1 0 0 0 0 0 0 0 0 0

Total # of neighbors = 292
Ave neighs/atom = 32.4444
Ave special neighs/atom = 0.222222
Neighbor list builds = 0
Dangerous builds = 0
run 100
Memory usage per processor = 2.17056 Mbytes
Step Temp E_pair E_bond PotEng KinEng TotEng E_mol Press Pxx Pyy Pzz Volume 
    1300   0.33358119   0.11281016 9.4914289e-06   0.11281965   0.44477492   0.55759458 9.4914289e-06    1.0480457    1.7828729   0.61571886   0.74554542    15.000145 
    1310   0.33165312   0.11287202 1.2897166e-05   0.11288492   0.44220416   0.55508907 1.2897166e-05     1.047449    1.7791542   0.62073793   0.74245489    15.000145 
    1320   0.32768982   0.11288225 1.7708193e-05   0.11289996   0.43691976   0.54981971 1.7708193e-05    1.0457614    1.7838164   0.60834912   0.74511856    15.000145 
    1330   0.33628107   0.11287471 2.5010096e-05   0.11289972   0.44837476   0.56127447 2.5010096e-05    1.0510106    1.7754132    0.6254224    0.7521963    15.000145 
    1340   0.34109311   0.11284413 3.5063797e-05   0.11287919   0.45479082   0.56767001 3.5063797e-05    1.0545141    1.7719448   0.63936724   0.75223027    15.000145 
    1350   0.34323578    0.1127124 4.8623531e-05   0.11276103   0.45764771   0.57040874 4.8623531e-05    1.0564471    1.7696983   0.64723263   0.75241047    15.000145 
    1360   0.33982214   0.11250716 6.3510338e-05   0.11257067   0.45309619   0.56566687 6.3510338e-05     1.054888    1.7631583   0.63548308   0.76602261    15.000145 
    1370   0.33640543   0.11212055 8.6583712e-05   0.11220713   0.44854058   0.56074771 8.6583712e-05    1.0531257    1.7736058   0.61547019   0.77030117    15.000145 
    1380   0.33096601   0.11159823 0.00011064245   0.11170887   0.44128802   0.55299689 0.00011064245    1.0494043    1.7711846     0.607642   0.76938626    15.000145 
    1390    0.3322644   0.11095139 0.00013513421   0.11108653    0.4430192   0.55410572 0.00013513421    1.0483779     1.769265   0.60317325   0.77269542    15.000145 
    1400   0.32181925   0.11018449 0.00016438964   0.11034887   0.42909233    0.5394412 0.00016438964    1.0405065    1.7610249   0.58877832   0.77171617    15.000145 
Loop time of 0.000972986 on 1 procs for 100 steps with 9 atoms

Pair  time (%) = 0.000275373 (28.3019)
Bond  time (%) = 1.5974e-05 (1.64175)
Neigh time (%) = 0 (0)
Comm  time (%) = 0.000299215 (30.7523)
Outpt time (%) = 0.000133991 (13.7711)
Other time (%) = 0.000248432 (25.533)

Nlocal:    9 ave 9 max 9 min
Histogram: 1 0 0 0 0 0 0 0 0 0
Nghost:    370 ave 370 max 370 min
Histogram: 1 0 0 0 0 0 0 0 0 0
Neighs:    292 ave 292 max 292 min
Histogram: 1 0 0 0 0 0 0 0 0 0

Total # of neighbors = 292
Ave neighs/atom = 32.4444
Ave special neighs/atom = 0.222222
Neighbor list builds = 0
Dangerous builds = 0
run 100
Memory usage per processor = 2.17056 Mbytes
Step Temp E_pair E_bond PotEng KinEng TotEng E_mol Press Pxx Pyy Pzz Volume 
    1400   0.32181925   0.11018449 0.00016438964   0.11034887   0.42909233    0.5394412 0.00016438964    1.0405065    1.7610249   0.58877832   0.77171617    15.000145 
    1410   0.32867801   0.10944819 0.00019859446   0.10964678   0.43823735   0.54788414 0.00019859446     1.041994    1.7607016   0.58633444   0.77894584    15.000145 
    1420   0.34102184   0.10869902 0.00023605647   0.10893507   0.45469579   0.56363086 0.00023605647    1.0463276    1.7677249   0.58864416   0.78261385    15.000145 
    1430   0.33459463   0.10789534 0.00027228047   0.10816762   0.44612618   0.55429379 0.00027228047    1.0401659    1.7664944   0.57685742   0.77714605    15.000145 
    1440   0.32365029   0.10707665 0.0003038234   0.10738047   0.43153372   0.53891419 0.0003038234     1.031053     1.756274    0.5697414   0.76714358    15.000145 
    1450   0.31542817   0.10624213 0.00034117449    0.1065833   0.42057089   0.52715419 0.00034117449    1.0235414    1.7502837   0.55024712   0.77009335    15.000145 
    1460   0.31036226   0.10531061 0.0003900052   0.10570062   0.41381635   0.51951697 0.0003900052     1.017748    1.7403701   0.54439724   0.76847672    15.000145 
    1470   0.30971823   0.10415644 0.00043889679   0.10459533   0.41295764   0.51755298 0.00043889679    1.0141989    1.7226735   0.54240562   0.77751762    15.000145 
    1480    0.3087766   0.10293879 0.00049535974   0.10343415   0.41170213   0.51513628 0.00049535974    1.0107828    1.7081805   0.53569224   0.78847578    15.000145 
    1490   0.29343003   0.10189973 0.00055433359   0.10245407   0.39124003    0.4936941 0.00055433359    1.0004376    1.6871001   0.52378664   0.79042599    15.000145 
    1500   0.28956676   0.10090905 0.00061063913   0.10151968   0.38608901   0.48760869 0.00061063913   0.99595859    1.6830925   0.51613734   0.78864593    15.000145 
Loop time of 0.000983 on 1 procs for 100 steps with 9 atoms

Pair  time (%) = 0.000293493 (29.8569)
Bond  time (%) = 1.81198e-05 (1.84332)
Neigh time (%) = 0 (0)
Comm  time (%) = 0.000289917 (29.4931)
Outpt time (%) = 0.000136852 (13.9219)
Other time (%) = 0.000244617 (24.8848)

Nlocal:    9 ave 9 max 9 min
Histogram: 1 0 0 0 0 0 0 0 0 0
Nghost:    370 ave 370 max 370 min
Histogram: 1 0 0 0 0 0 0 0 0 0
Neighs:    293 ave 293 max 293 min
Histogram: 1 0 0 0 0 0 0 0 0 0

Total # of neighbors = 293
Ave neighs/atom = 32.5556
Ave special neighs/atom = 0.222222
Neighbor list builds = 0
Dangerous builds = 0
run 100
Memory usage per processor = 2.17056 Mbytes
Step Temp E_pair E_bond PotEng KinEng TotEng E_mol Press Pxx Pyy Pzz Volume 
    1500   0.28956676   0.10090905 0.00061063913   0.10151968   0.38608901   0.48760869 0.00061063913   0.99595859    1.6830925   0.51613734   0.78864593    15.000145 
    1510   0.29205943  0.099861422 0.00067315586   0.10053458   0.38941258   0.48994715 0.00067315586   0.99475499    1.6757048    0.5109179   0.79764223    15.000145 
    1520   0.30058304  0.098732835 0.00073527274  0.099468107   0.40077738   0.50024549 0.00073527274   0.99634044    1.6647813   0.51509378    0.8091462    15.000145 
    1530   0.30605386  0.097535542 0.00079014445  0.098325686   0.40807182    0.5063975 0.00079014445   0.99553472    1.6508143   0.50962206   0.82616781    15.000145 
    1540   0.30305699  0.096253388 0.00084406986  0.097097458   0.40407598   0.50117344 0.00084406986   0.98952961    1.6401415   0.50354196   0.82490532    15.000145 
    1550    0.2890682  0.094829386 0.00091663216  0.095746018   0.38542426   0.48117028 0.00091663216   0.97755309    1.6180801   0.48864881   0.82593035    15.000145 
    1560   0.28618208  0.093321563 0.00098883181  0.094310395   0.38157611    0.4758865 0.00098883181   0.97104939    1.6068602   0.47408538   0.83220257    15.000145 
    1570   0.29743054  0.091650016 0.0010711047  0.092721121   0.39657406   0.48929518 0.0010711047   0.97149541    1.6015694   0.46685099   0.84606581    15.000145 
    1580   0.30146422  0.089880252  0.001173007  0.091053259    0.4019523   0.49300556  0.001173007   0.96786018    1.5935394   0.47072228   0.83931883    15.000145 
    1590   0.30575375  0.088068934 0.0012929331  0.089361867   0.40767167   0.49703354 0.0012929331    0.9643861    1.5829797   0.46443425   0.84574439    15.000145 
    1600    0.2947584  0.086364683 0.0014218338  0.087786516    0.3930112   0.48079771 0.0014218338   0.95317284    1.5701089     0.450239   0.83917064    15.000145 
Loop time of 0.000993967 on 1 procs for 100 steps with 9 atoms

Pair  time (%) = 0.000285625 (28.7359)
Bond  time (%) = 2.55108e-05 (2.56656)
Neigh time (%) = 0 (0)
Comm  time (%) = 0.000278711 (28.0403)
Outpt time (%) = 0.000144243 (14.5119)
Other time (%) = 0.000259876 (26.1454)

Nlocal:    9 ave 9 max 9 min
Histogram: 1 0 0 0 0 0 0 0 0 0
Nghost:    370 ave 370 max 370 min
Histogram: 1 0 0 0 0 0 0 0 0 0
Neighs:    295 ave 295 max 295 min
Histogram: 1 0 0 0 0 0 0 0 0 0

Total # of neighbors = 295
Ave neighs/atom = 32.7778
Ave special neighs/atom = 0.222222
Neighbor list builds = 0
Dangerous builds = 0
run 100
Memory usage per processor = 2.17056 Mbytes
Step Temp E_pair E_bond PotEng KinEng TotEng E_mol Press Pxx Pyy Pzz Volume 
    1600    0.2947584  0.086364683 0.0014218338  0.087786516    0.3930112   0.48079771 0.0014218338   0.95317284    1.5701089     0.450239   0.83917064    15.000145 
    1610   0.29787702  0.084686095 0.0015399478  0.086226043   0.39716936   0.48339541 0.0015399478    0.9490651    1.5508299    0.4483628   0.84800258    15.000145 
    1620   0.29953956  0.082928386 0.0016583985  0.084586784   0.39938608   0.48397287 0.0016583985   0.94358035    1.5301217   0.45416697   0.84645235    15.000145 
    1630   0.29095734  0.081174957 0.0017612617  0.082936219   0.38794313   0.47087934 0.0017612617   0.93191025    1.5041327   0.45113209   0.84046597    15.000145 
    1640   0.29317168  0.079471039 0.0018306777  0.081301717   0.39089558   0.47219729 0.0018306777   0.92514211    1.4848988   0.45624574   0.83428181    15.000145 
    1650   0.30102875   0.07776076 0.0018695927  0.079630352   0.40137167   0.48100202 0.0018695927   0.92058291    1.4679767   0.45949705   0.83427502    15.000145 
    1660   0.30803737  0.075929915 0.0019206482  0.077850563   0.41071649   0.48856706 0.0019206482    0.9150319    1.4507134   0.46391148   0.83047084    15.000145 
    1670   0.29643906  0.074146701 0.0019633994    0.0761101   0.39525209   0.47136219 0.0019633994   0.89933173    1.4170389   0.45510232   0.82585393    15.000145 
    1680   0.29853189  0.072405274 0.0020215435  0.074426818   0.39804252   0.47246934 0.0020215435   0.89139846    1.3944611   0.45248236   0.82725188    15.000145 
    1690   0.30576776  0.070660993 0.0020613151  0.072722308   0.40769034   0.48041265 0.0020613151   0.88698573    1.3689488   0.45602422   0.83598411    15.000145 
    1700    0.3081952   0.06894812  0.002103365  0.071051485   0.41092694   0.48197842  0.002103365   0.88047493    1.3405297   0.46713417   0.83376091    15.000145 
Loop time of 0.000987768 on 1 procs for 100 steps with 9 atoms

Pair  time (%) = 0.000281811 (28.5301)
Bond  time (%) = 1.90735e-05 (1.93097)
Neigh time (%) = 0 (0)
Comm  time (%) = 0.000306129 (30.992)
Outpt time (%) = 0.000136375 (13.8064)
Other time (%) = 0.000244379 (24.7405)

Nlocal:    9 ave 9 max 9 min
Histogram: 1 0 0 0 0 0 0 0 0 0
Nghost:    370 ave 370 max 370 min
Histogram: 1 0 0 0 0 0 0 0 0 0
Neighs:    295 ave 295 max 295 min
Histogram: 1 0 0 0 0 0 0 0 0 0

Total # of neighbors = 295
Ave neighs/atom = 32.7778
Ave special neighs/atom = 0.222222
Neighbor list builds = 0
Dangerous builds = 0
run 100
Memory usage per processor = 2.17056 Mbytes
Step Temp E_pair E_bond PotEng KinEng TotEng E_mol Press Pxx Pyy Pzz Volume 
    1700    0.3081952   0.06894812  0.002103365  0.071051485   0.41092694   0.48197842  0.002103365   0.88047493    1.3405297   0.46713417   0.83376091    15.000145 
    1710   0.31313419  0.067308539 0.0021579248  0.069466464   0.41751225   0.48697872 0.0021579248   0.87592092    1.3233574   0.46670212   0.83770326    15.000145 
    1720   0.31541064  0.065704159  0.002207248  0.067911407   0.42054752   0.48845893  0.002207248   0.86989964    1.3140371   0.46160995   0.83405183    15.000145 
    1730   0.32669816  0.064095797 0.0022819926  0.066377789   0.43559755   0.50197534 0.0022819926   0.86915212    1.3087834   0.45296996   0.84570301    15.000145 
    1740   0.33666915  0.062479489 0.0023495088  0.064828998    0.4488922    0.5137212 0.0023495088   0.86722855    1.3153616   0.45352454   0.83279948    15.000145 
    1750   0.34260504  0.060947028 0.0024049458  0.063351973   0.45680672   0.52015869 0.0024049458   0.86317892    1.2965478   0.45367588   0.83931306    15.000145 
    1760   0.34272428  0.059477911 0.0024652574  0.061943169    0.4569657   0.51890887 0.0024652574   0.85633899    1.2754673   0.45246815   0.84108154    15.000145 
    1770   0.34153903  0.057999534 0.0025464669  0.060546001   0.45538537   0.51593137 0.0025464669   0.84907933     1.248984    0.4584764   0.83977756    15.000145 
    1780   0.34840814  0.056513078 0.0026505859  0.059163664   0.46454418   0.52370785 0.0026505859   0.84639876    1.2425449   0.46619173   0.83045961    15.000145 
    1790   0.34452742  0.055065541 0.0027532835  0.057818825   0.45936989   0.51718871 0.0027532835   0.83794755    1.2257384   0.45620196   0.83190228    15.000145 
    1800   0.34383113  0.053705082  0.002855996  0.056561078    0.4584415   0.51500258  0.002855996   0.83150819    1.1962594   0.46162015     0.836645    15.000145 
Loop time of 0.000987053 on 1 procs for 100 steps with 9 atoms

Pair  time (%) = 0.00027442 (27.8019)
Bond  time (%) = 1.26362e-05 (1.28019)
Neigh time (%) = 0 (0)
Comm  time (%) = 0.000321865 (32.6087)
Outpt time (%) = 0.000138998 (14.0821)
Other time (%) = 0.000239134 (24.2271)

Nlocal:    9 ave 9 max 9 min
Histogram: 1 0 0 0 0 0 0 0 0 0
Nghost:    370 ave 370 max 370 min
Histogram: 1 0 0 0 0 0 0 0 0 0
Neighs:    295 ave 295 max 295 min
Histogram: 1 0 0 0 0 0 0 0 0 0

Total # of neighbors = 295
Ave neighs/atom = 32.7778
Ave special neighs/atom = 0.222222
Neighbor list builds = 0
Dangerous builds = 0
run 100
Memory usage per processor = 2.17056 Mbytes
Step Temp E_pair E_bond PotEng KinEng TotEng E_mol Press Pxx Pyy Pzz Volume 
    1800   0.34383113  0.053705082  0.002855996  0.056561078    0.4584415   0.51500258  0.002855996   0.83150819    1.1962594   0.46162015     0.836645    15.000145 
    1810   0.34587726  0.052359297  0.002926279  0.055285576   0.46116968   0.51645525  0.002926279   0.82575313    1.1801328   0.45445137   0.84267524    15.000145 
    1820   0.33493794  0.051049259 0.0029590511   0.05400831   0.44658392   0.50059223 0.0029590511    0.8123688    1.1529937   0.45163816   0.83247455    15.000145 
    1830   0.34435162  0.049855502 0.0029673747  0.052822877   0.45913549   0.51195837 0.0029673747   0.80983069    1.1278996   0.46891487   0.83267758    15.000145 
    1840   0.34413662  0.048825482 0.0029566805  0.051782163   0.45884883   0.51063099 0.0029566805   0.80269096    1.1071586   0.46014082   0.84077351    15.000145 
    1850   0.35942779  0.047848712 0.0029399451  0.050788657   0.47923705   0.53002571 0.0029399451    0.8039379      1.09446   0.46475941   0.85259432    15.000145 
    1860   0.36793611  0.046928862 0.0029023094  0.049831171   0.49058148   0.54041265 0.0029023094    0.8012311    1.0864471   0.46931929   0.84792694    15.000145 
    1870   0.37743202  0.046026678 0.0028515836  0.048878262    0.5032427   0.55212096 0.0028515836   0.79874843    1.0686137   0.47554549   0.85208616    15.000145 
    1880   0.37267097  0.045181459 0.0028008892  0.047982348   0.49689463   0.54487698 0.0028008892   0.78892661    1.0382886   0.47365877   0.85483247    15.000145 
    1890   0.37615795  0.044290593 0.0027661358  0.047056729   0.50154393   0.54860066 0.0027661358   0.78350944    1.0113906   0.48344582   0.85569185    15.000145 
    1900   0.39465406  0.043378451 0.0027378158  0.046116267   0.52620541   0.57232167 0.0027378158   0.78597326    1.0015502   0.49503037   0.86133918    15.000145 
Loop time of 0.000988007 on 1 procs for 100 steps with 9 atoms

Pair  time (%) = 0.000277996 (28.1371)
Bond  time (%) = 2.07424e-05 (2.09942)
Neigh time (%) = 0 (0)
Comm  time (%) = 0.000291824 (29.5367)
Outpt time (%) = 0.000143051 (14.4788)
Other time (%) = 0.000254393 (25.7481)

Nlocal:    9 ave 9 max 9 min
Histogram: 1 0 0 0 0 0 0 0 0 0
Nghost:    370 ave 370 max 370 min
Histogram: 1 0 0 0 0 0 0 0 0 0
Neighs:    297 ave 297 max 297 min
Histogram: 1 0 0 0 0 0 0 0 0 0

Total # of neighbors = 297
Ave neighs/atom = 33
Ave special neighs/atom = 0.222222
Neighbor list builds = 0
Dangerous builds = 0
run 100
Memory usage per processor = 2.17056 Mbytes
Step Temp E_pair E_bond PotEng KinEng TotEng E_mol Press Pxx Pyy Pzz Volume 
    1900   0.39465406  0.043378451 0.0027378158  0.046116267   0.52620541   0.57232167 0.0027378158   0.78597326    1.0015502   0.49503037   0.86133918    15.000145 
    1910   0.39791469  0.042408383 0.0027401376   0.04514852   0.53055292   0.57570145 0.0027401376   0.78044291    0.9863797   0.49608307   0.85886597    15.000145 
    1920   0.38830092  0.041468872 0.0027116242  0.044180497   0.51773456   0.56191506 0.0027116242   0.76807188   0.95980755   0.48621524   0.85819285    15.000145 
    1930   0.38758258  0.040555603 0.0026718293  0.043227432   0.51677678   0.56000421 0.0026718293   0.76098553   0.94086726   0.48082822   0.86126111    15.000145 
    1940   0.37905234   0.03969709  0.002641556  0.042338646   0.50540312   0.54774176  0.002641556   0.75015775   0.92416802   0.46855303   0.85775221    15.000145 
    1950   0.37797374   0.03888271 0.0026183331  0.041501043   0.50396498   0.54546603 0.0026183331    0.7435699   0.90409298    0.4614895   0.86512724    15.000145 
    1960    0.3759821   0.03810208 0.0025685035  0.040670583   0.50130947   0.54198005 0.0025685035   0.73607481   0.88150147   0.46294094   0.86378202    15.000145 
    1970   0.39408732  0.037345531 0.0024869256  0.039832456   0.52544976   0.56528222 0.0024869256   0.73866628   0.86706097   0.47354493   0.87539295    15.000145 
    1980   0.40210811  0.036576494 0.0023970509  0.038973545   0.53614415    0.5751177 0.0023970509   0.73548609   0.86417373   0.46028657   0.88199797    15.000145 
    1990    0.4085474  0.035840756 0.0023005183  0.038141275   0.54472986   0.58287114 0.0023005183   0.73135631   0.85013478   0.46469502   0.87923912    15.000145 
    2000   0.41033435  0.035098766 0.0022136297  0.037312395   0.54711247   0.58442486 0.0022136297   0.72475551   0.83241656   0.46165559   0.88019438    15.000145 
Loop time of 0.000972986 on 1 procs for 100 steps with 9 atoms

Pair  time (%) = 0.000276566 (28.4244)
Bond  time (%) = 1.85966e-05 (1.9113)
Neigh time (%) = 0 (0)
Comm  time (%) = 0.000294924 (30.3112)
Outpt time (%) = 0.000137329 (14.1142)
Other time (%) = 0.000245571 (25.2389)

Nlocal:    9 ave 9 max 9 min
Histogram: 1 0 0 0 0 0 0 0 0 0
Nghost:    358 ave 358 max 358 min
Histogram: 1 0 0 0 0 0 0 0 0 0
Neighs:    296 ave 296 max 296 min
Histogram: 1 0 0 0 0 0 0 0 0 0

Total # of neighbors = 296
Ave neighs/atom = 32.8889
Ave special neighs/atom = 0.222222
Neighbor list builds = 0
Dangerous builds = 0
run 100
Memory usage per processor = 2.17056 Mbytes
Step Temp E_pair E_bond PotEng KinEng TotEng E_mol Press Pxx Pyy Pzz Volume 
    2000   0.41033435  0.035098766 0.0022136297  0.037312395   0.54711247   0.58442486 0.0022136297   0.72475551   0.83241656   0.46165559   0.88019438    15.000145 
    2010   0.40285607  0.034397324 0.0021175842  0.036514909   0.53714142   0.57365633 0.0021175842   0.71306643   0.81370906   0.45174795   0.87374228    15.000145 
    2020   0.40806972  0.033687934 0.0020270074  0.035714941   0.54409296   0.57980791 0.0020270074   0.70805253   0.79861059   0.45949241   0.86605459    15.000145 
    2030    0.3945222  0.032986615 0.0019356702  0.034922286    0.5260296   0.56095189 0.0019356702   0.69295799   0.77373307   0.45830187   0.84683904    15.000145 
    2040   0.40056659  0.032262735 0.0018614422  0.034124177   0.53408879   0.56821296 0.0018614422    0.6885087   0.75479841    0.4619086   0.84881907    15.000145 
    2050   0.40507964  0.031567015  0.001802692  0.033369707   0.54010619    0.5734759  0.001802692   0.68359707   0.73470598   0.46665669   0.84942854    15.000145 
    2060   0.40073821  0.030906085  0.001738729  0.032644814   0.53431762   0.56696243  0.001738729   0.67389824   0.70777162   0.45897658   0.85494652    15.000145 
    2070   0.40382001  0.030236476 0.0016493518  0.031885827   0.53842668    0.5703125 0.0016493518   0.66920967   0.69178128   0.45775217   0.85809556    15.000145 
    2080   0.39203535   0.02958177 0.0015703541  0.031152124    0.5227138   0.55386593 0.0015703541   0.65705397   0.67057151   0.45021977   0.85037063    15.000145 
    2090   0.38741254  0.028945581 0.0015064521  0.030452033   0.51655006   0.54700209 0.0015064521   0.64920921   0.64767767    0.4561613   0.84378866    15.000145 
    2100   0.38322873  0.028319003 0.0014533331  0.029772336   0.51097164   0.54074397 0.0014533331   0.64181871   0.62390996   0.45518077   0.84636541    15.000145 
Loop time of 0.000981092 on 1 procs for 100 steps with 9 atoms

Pair  time (%) = 0.000270367 (27.5577)
Bond  time (%) = 1.85966e-05 (1.8955)
Neigh time (%) = 0 (0)
Comm  time (%) = 0.000296831 (30.2552)
Outpt time (%) = 0.000148296 (15.1154)
Other time (%) = 0.000247002 (25.1762)

Nlocal:    9 ave 9 max 9 min
Histogram: 1 0 0 0 0 0 0 0 0 0
Nghost:    358 ave 358 max 358 min
Histogram: 1 0 0 0 0 0 0 0 0 0
Neighs:    298 ave 298 max 298 min
Histogram: 1 0 0 0 0 0 0 0 0 0

Total # of neighbors = 298
Ave neighs/atom = 33.1111
Ave special neighs/atom = 0.222222
Neighbor list builds = 0
Dangerous builds = 0
run 100
Memory usage per processor = 2.17056 Mbytes
Step Temp E_pair E_bond PotEng KinEng TotEng E_mol Press Pxx Pyy Pzz Volume 
    2100   0.38322873  0.028319003 0.0014533331  0.029772336   0.51097164   0.54074397 0.0014533331   0.64181871   0.62390996   0.45518077   0.84636541    15.000145 
    2110   0.38184082   0.02766937 0.0013915123  0.029060882    0.5091211   0.53818198 0.0013915123   0.63536028   0.61107664   0.46466997   0.83033424    15.000145 
    2120   0.37952708  0.027047303  0.001329303  0.028376606   0.50603611   0.53441272  0.001329303   0.62848082   0.60014383   0.45998832    0.8253103    15.000145 
    2130   0.37727167   0.02645624 0.0012673431  0.027723583   0.50302889   0.53075247 0.0012673431   0.62165401   0.58682808   0.44742741   0.83070654    15.000145 
    2140   0.37945801  0.025916502 0.0011903812  0.027106883   0.50594402    0.5330509 0.0011903812   0.61687713   0.57252255   0.45276793   0.82534092    15.000145 
    2150   0.38699929  0.025396372 0.0011203592  0.026516731   0.51599905   0.54251578 0.0011203592   0.61506962   0.55845585   0.45801777   0.82873526    15.000145 
    2160   0.36865443  0.024930656  0.001038055  0.025968711   0.49153924   0.51750795  0.001038055    0.5990759   0.53255905   0.44185937   0.82280927    15.000145 
    2170   0.35520885  0.024526377 0.00096389638  0.025490273    0.4736118   0.49910207 0.00096389638   0.58611855   0.50726636   0.43265582   0.81843347    15.000145 
    2180   0.34811946  0.024189775 0.00088082214  0.025070597   0.46415929   0.48922988 0.00088082214   0.57652829   0.48197462   0.43563678   0.81197347    15.000145 
    2190   0.35628365  0.023905828 0.00078715625  0.024692985   0.47504487   0.49973785 0.00078715625   0.57487145   0.46808281   0.43871757   0.81781397    15.000145 
    2200   0.35689141  0.023681568 0.00069321594  0.024374784   0.47585522      0.50023 0.00069321594   0.56926799   0.46381462   0.43749199   0.80649736    15.000145 
Loop time of 0.000983953 on 1 procs for 100 steps with 9 atoms

Pair  time (%) = 0.000270367 (27.4776)
Bond  time (%) = 2.3365e-05 (2.37461)
Neigh time (%) = 0 (0)
Comm  time (%) = 0.000310659 (31.5726)
Outpt time (%) = 0.000138998 (14.1265)
Other time (%) = 0.000240564 (24.4488)

Nlocal:    9 ave 9 max 9 min
Histogram: 1 0 0 0 0 0 0 0 0 0
Nghost:    358 ave 358 max 358 min
Histogram: 1 0 0 0 0 0 0 0 0 0
Neighs:    298 ave 298 max 298 min
Histogram: 1 0 0 0 0 0 0 0 0 0

Total # of neighbors = 298
Ave neighs/atom = 33.1111
Ave special neighs/atom = 0.222222
Neighbor list builds = 0
Dangerous builds = 0
run 100
Memory usage per processor = 2.17056 Mbytes
Step Temp E_pair E_bond PotEng KinEng TotEng E_mol Press Pxx Pyy Pzz Volume 
    2200   0.35689141  0.023681568 0.00069321594  0.024374784   0.47585522      0.50023 0.00069321594   0.56926799   0.46381462   0.43749199   0.80649736    15.000145 
    2210    0.3477056  0.023486068 0.00060128296  0.024087351   0.46360747   0.48769482 0.00060128296   0.55837032   0.43720229   0.44992346    0.7879852    15.000145 
    2220   0.34798664  0.023334018 0.00050463291  0.023838651   0.46398219   0.48782084 0.00050463291   0.55218318   0.43106144   0.43958339   0.78590471    15.000145 
    2230   0.35166723   0.02320383 0.00041116906  0.023614999   0.46888964   0.49250463 0.00041116906   0.54753053   0.42623918   0.43741829   0.77893411    15.000145 
    2240   0.35959348  0.023062292 0.00033670689  0.023398999   0.47945798   0.50285698 0.00033670689   0.54549594   0.42369939   0.43292889   0.77985954    15.000145 
    2250   0.36405504  0.022946929 0.0002707306  0.023217659   0.48540673   0.50862439 0.0002707306   0.54170478   0.41590176   0.43774463   0.77146795    15.000145 
    2260   0.37902006  0.022875166 0.00020825218  0.023083418   0.50536008    0.5284435 0.00020825218   0.54341162   0.40607008   0.45966769   0.76449707    15.000145 
    2270    0.3752067  0.022830182 0.0001574735  0.022987655    0.5002756   0.52326326 0.0001574735    0.5355291   0.38966841    0.4614673   0.75545158    15.000145 
    2280   0.38336045  0.022807744 0.00011572202  0.022923466   0.51114727   0.53407074 0.00011572202   0.53424579   0.37302619    0.4763109   0.75340026    15.000145 
    2290   0.37911059  0.022830734 7.6888441e-05  0.022907622   0.50548078   0.52838841 7.6888441e-05   0.52617189   0.36209498   0.47090441   0.74551629    15.000145 
    2300   0.38131513  0.022858789 4.803712e-05  0.022906826   0.50842018     0.531327 4.803712e-05   0.52172621   0.34777957   0.48297102   0.73442804    15.000145 
Loop time of 0.000978947 on 1 procs for 100 steps with 9 atoms

Pair  time (%) = 0.000275612 (28.1539)
Bond  time (%) = 2.7895e-05 (2.84949)
Neigh time (%) = 0 (0)
Comm  time (%) = 0.00028801 (29.4204)
Outpt time (%) = 0.000139952 (14.2962)
Other time (%) = 0.000247478 (25.2801)

Nlocal:    9 ave 9 max 9 min
Histogram: 1 0 0 0 0 0 0 0 0 0
Nghost:    358 ave 358 max 358 min
Histogram: 1 0 0 0 0 0 0 0 0 0
Neighs:    298 ave 298 max 298 min
Histogram: 1 0 0 0 0 0 0 0 0 0

Total # of neighbors = 298
Ave neighs/atom = 33.1111
Ave special neighs/atom = 0.222222
Neighbor list builds = 0
Dangerous builds = 0
run 100
Memory usage per processor = 2.17056 Mbytes
Step Temp E_pair E_bond PotEng KinEng TotEng E_mol Press Pxx Pyy Pzz Volume 
    2300   0.38131513  0.022858789 4.803712e-05  0.022906826   0.50842018     0.531327 4.803712e-05   0.52172621   0.34777957   0.48297102   0.73442804    15.000145 
    2310   0.37898559  0.022913494 2.7682407e-05  0.022941176   0.50531412    0.5282553 2.7682407e-05   0.51517268    0.3344514   0.48394871   0.72711793    15.000145 
    2320   0.37462079  0.023016984 1.2597295e-05  0.023029581   0.49949438   0.52252396 1.2597295e-05   0.50761719   0.32429557   0.48140551    0.7171505    15.000145 
    2330   0.36651328  0.023140475 4.4294065e-06  0.023144905   0.48868437   0.51182928 4.4294065e-06   0.49857546    0.3069743    0.4722694   0.71648268    15.000145 
    2340   0.38083208  0.023324631 5.5086704e-07  0.023325182   0.50777611   0.53110129 5.5086704e-07    0.5018077   0.30755237   0.48288085   0.71498986    15.000145 
    2350   0.37328017  0.023574006 9.5522959e-07  0.023574962   0.49770689   0.52128185 9.5522959e-07   0.49297148   0.29268398   0.48009998    0.7061305    15.000145 
    2360   0.37940398  0.023854976 6.6456874e-06  0.023861622   0.50587197   0.52973359 6.6456874e-06   0.49330336   0.29303919   0.48508943   0.70178147    15.000145 
    2370   0.38714437   0.02417287 1.493655e-05  0.024187807   0.51619249    0.5403803 1.493655e-05   0.49536996   0.28900244   0.49682084   0.70028659    15.000145 
    2380   0.37851603  0.024519088 2.5783085e-05  0.024544871   0.50468804   0.52923291 2.5783085e-05   0.48905563   0.27533464   0.49437566   0.69745659    15.000145 
    2390   0.37999144  0.024871136 3.9568848e-05  0.024910705   0.50665525   0.53156595 3.9568848e-05   0.48820415   0.26913566   0.49695961   0.69851718    15.000145 
    2400   0.37688549  0.025269692 5.6137928e-05   0.02532583   0.50251399   0.52783982 5.6137928e-05   0.48510952    0.2574074   0.50005985   0.69786131    15.000145 
Loop time of 0.000980854 on 1 procs for 100 steps with 9 atoms

Pair  time (%) = 0.000273228 (27.8561)
Bond  time (%) = 1.97887e-05 (2.0175)
Neigh time (%) = 0 (0)
Comm  time (%) = 0.000295639 (30.141)
Outpt time (%) = 0.000142097 (14.4871)
Other time (%) = 0.000250101 (25.4983)

Nlocal:    9 ave 9 max 9 min
Histogram: 1 0 0 0 0 0 0 0 0 0
Nghost:    358 ave 358 max 358 min
Histogram: 1 0 0 0 0 0 0 0 0 0
Neighs:    298 ave 298 max 298 min
Histogram: 1 0 0 0 0 0 0 0 0 0

Total # of neighbors = 298
Ave neighs/atom = 33.1111
Ave special neighs/atom = 0.222222
Neighbor list builds = 0
Dangerous builds = 0
run 100
Memory usage per processor = 2.17056 Mbytes
Step Temp E_pair E_bond PotEng KinEng TotEng E_mol Press Pxx Pyy Pzz Volume 
    2400   0.37688549  0.025269692 5.6137928e-05   0.02532583   0.50251399   0.52783982 5.6137928e-05   0.48510952    0.2574074   0.50005985   0.69786131    15.000145 
    2410   0.37885891  0.025717045 7.2867102e-05  0.025789912   0.50514522   0.53093513 7.2867102e-05    0.4852694    0.2593404   0.49906456   0.69740325    15.000145 
    2420   0.36392466  0.026157928 9.0571526e-05    0.0262485   0.48523288   0.51148138 9.0571526e-05    0.4764104   0.24505433    0.4907072   0.69346967    15.000145 
    2430   0.36185646  0.026602717 0.00011298336  0.026715701   0.48247528   0.50919098 0.00011298336   0.47413533   0.23737493   0.49074798   0.69428307    15.000145 
    2440   0.34895206  0.027065997 0.0001377878  0.027203785   0.46526942    0.4924732 0.0001377878   0.46611369   0.22619057   0.48113546   0.69101506    15.000145 
    2450   0.34416147  0.027561698 0.00017009602  0.027731794   0.45888197   0.48661376 0.00017009602    0.4621872   0.20899826   0.48356884   0.69399451    15.000145 
    2460   0.35123356  0.028050249 0.0002081188  0.028258368   0.46831141   0.49656978 0.0002081188   0.46427107   0.20528596   0.49599241   0.69153483    15.000145 
    2470   0.35461649  0.028506561 0.00025113225  0.028757693   0.47282199   0.50157968 0.00025113225   0.46411489   0.19228307    0.5048713    0.6951903    15.000145 
    2480   0.36038842  0.028951747 0.00029159828  0.029243345   0.48051789   0.50976124 0.00029159828   0.46537865   0.19102928   0.51737678    0.6877299    15.000145 
    2490   0.36513159  0.029412389 0.00033437976  0.029746769   0.48684212   0.51658888 0.00033437976   0.46611393   0.17769054   0.53303943   0.68761182    15.000145 
    2500   0.37427926  0.029921774 0.00037160722  0.030293381   0.49903901   0.52933239 0.00037160722   0.47121927   0.18071721   0.55049411   0.68244649    15.000145 
Loop time of 0.000967026 on 1 procs for 100 steps with 9 atoms

Pair  time (%) = 0.000269175 (27.8353)
Bond  time (%) = 2.64645e-05 (2.73669)
Neigh time (%) = 0 (0)
Comm  time (%) = 0.000282764 (29.2406)
Outpt time (%) = 0.000141621 (14.645)
Other time (%) = 0.000247002 (25.5424)

Nlocal:    9 ave 9 max 9 min
Histogram: 1 0 0 0 0 0 0 0 0 0
Nghost:    349 ave 349 max 349 min
Histogram: 1 0 0 0 0 0 0 0 0 0
Neighs:    299 ave 299 max 299 min
Histogram: 1 0 0 0 0 0 0 0 0 0

Total # of neighbors = 299
Ave neighs/atom = 33.2222
Ave special neighs/atom = 0.222222
Neighbor list builds = 0
Dangerous builds = 0
run 100
Memory usage per processor = 2.17056 Mbytes
Step Temp E_pair E_bond PotEng KinEng TotEng E_mol Press Pxx Pyy Pzz Volume 
    2500   0.37427926  0.029921774 0.00037160722  0.030293381   0.49903901   0.52933239 0.00037160722   0.47121927   0.18071721   0.55049411   0.68244649    15.000145 
    2510   0.37661667  0.030474012 0.0004063899  0.030880402   0.50215556   0.53303596 0.0004063899   0.47315095   0.18355056   0.55829578   0.67760651    15.000145 
    2520   0.37565804  0.031054553 0.00044192998  0.031496483   0.50087739   0.53237387 0.00044192998   0.47350301   0.18311982   0.55352145   0.68386776    15.000145 
    2530   0.37202012   0.03165745 0.00048700446  0.032144455   0.49602682   0.52817128 0.00048700446   0.47210635   0.17115359   0.55800365   0.68716181    15.000145 
    2540   0.37318653   0.03232713 0.0005320308   0.03285916   0.49758205   0.53044121 0.0005320308   0.47364919   0.16076529   0.57011984   0.69006243    15.000145 
    2550   0.37822936  0.033015231 0.00055927299  0.033574504   0.50430582   0.53788032 0.00055927299   0.47810411    0.1579888   0.58600644    0.6903171    15.000145 
    2560   0.39614466  0.033766749 0.00058050959  0.034347259   0.52819288   0.56254013 0.00058050959   0.48996282    0.1702907   0.60027479   0.69932295    15.000145 
    2570   0.39329368  0.034513658 0.00061372136  0.035127379   0.52439157   0.55951895 0.00061372136    0.4902039   0.17141933   0.59962944   0.69956292    15.000145 
    2580   0.40906445  0.035293974 0.00065116628   0.03594514   0.54541927   0.58136441 0.00065116628   0.50148141   0.18779183   0.60651408   0.71013832    15.000145 
    2590   0.39832033  0.036110514 0.00070188171  0.036812396   0.53109378   0.56790617 0.00070188171   0.49858471   0.18337736   0.60080694   0.71156982    15.000145 
    2600   0.40231595  0.036953428 0.00074338737  0.037696815   0.53642127   0.57411808 0.00074338737   0.50401039   0.18971859   0.61189625   0.71041633    15.000145 
Loop time of 0.000963926 on 1 procs for 100 steps with 9 atoms

Pair  time (%) = 0.000270367 (28.0485)
Bond  time (%) = 2.0504e-05 (2.12713)
Neigh time (%) = 0 (0)
Comm  time (%) = 0.000296116 (30.7198)
Outpt time (%) = 0.000138283 (14.3458)
Other time (%) = 0.000238657 (24.7588)

Nlocal:    9 ave 9 max 9 min
Histogram: 1 0 0 0 0 0 0 0 0 0
Nghost:    349 ave 349 max 349 min
Histogram: 1 0 0 0 0 0 0 0 0 0
Neighs:    298 ave 298 max 298 min
Histogram: 1 0 0 0 0 0 0 0 0 0

Total # of neighbors = 298
Ave neighs/atom = 33.1111
Ave special neighs/atom = 0.222222
Neighbor list builds = 0
Dangerous builds = 0
run 100
Memory usage per processor = 2.17056 Mbytes
Step Temp E_pair E_bond PotEng KinEng TotEng E_mol Press Pxx Pyy Pzz Volume 
    2600   0.40231595  0.036953428 0.00074338737  0.037696815   0.53642127   0.57411808 0.00074338737   0.50401039   0.18971859   0.61189625   0.71041633    15.000145 
    2610   0.41305692  0.037818749 0.0007718919  0.038590641   0.55074256    0.5893332 0.0007718919    0.5147307   0.19373513   0.63053358    0.7199234    15.000145 
    2620   0.41252759  0.038664906 0.00080819718  0.039473103   0.55003679   0.58950989 0.00080819718   0.51973808   0.20204207   0.63132299   0.72584919    15.000145 
    2630   0.41199059  0.039575084 0.00084919123  0.040424275   0.54932079   0.58974507 0.00084919123   0.52476286   0.21311747   0.62715891   0.73401221    15.000145 
    2640   0.42308137  0.040541603 0.00088746507  0.041429068   0.56410849   0.60553756 0.00088746507   0.53611899   0.21589322   0.65221511   0.74024865    15.000145 
    2650   0.43243393  0.041547687 0.00093949231  0.042487179   0.57657857   0.61906575 0.00093949231   0.54633676   0.20507108   0.68345267   0.75048653    15.000145 
    2660   0.42230831  0.042608065 0.00099524882  0.043603314   0.56307775   0.60668107 0.00099524882   0.54624108   0.20732014   0.68569096   0.74571214    15.000145 
    2670   0.41602411  0.043717213 0.0010620232  0.044779236   0.55469881   0.59947805 0.0010620232   0.54813323   0.20962169   0.68310701   0.75167097    15.000145 
    2680   0.41287531  0.044781885 0.0011408243   0.04592271   0.55050041   0.59642312 0.0011408243   0.55119961   0.20417629   0.68509049   0.76433205    15.000145 
    2690   0.38875758  0.045822577 0.0012239658  0.047046543   0.51834344   0.56538998 0.0012239658   0.54280834    0.1915588   0.67331311   0.76355312    15.000145 
    2700   0.39249748  0.046819228 0.0013171816  0.048136409   0.52332997   0.57146638 0.0013171816   0.54882402   0.20381369   0.67745758   0.76520078    15.000145 
Loop time of 0.000957012 on 1 procs for 100 steps with 9 atoms

Pair  time (%) = 0.000270128 (28.2262)
Bond  time (%) = 2.14577e-05 (2.24215)
Neigh time (%) = 0 (0)
Comm  time (%) = 0.000277758 (29.0234)
Outpt time (%) = 0.000144005 (15.0473)
Other time (%) = 0.000243664 (25.4609)

Nlocal:    9 ave 9 max 9 min
Histogram: 1 0 0 0 0 0 0 0 0 0
Nghost:    333 ave 333 max 333 min
Histogram: 1 0 0 0 0 0 0 0 0 0
Neighs:    298 ave 298 max 298 min
Histogram: 1 0 0 0 0 0 0 0 0 0

Total # of neighbors = 298
Ave neighs/atom = 33.1111
Ave special neighs/atom = 0.222222
Neighbor list builds = 0
Dangerous builds = 0
run 100
Memory usage per processor = 2.17056 Mbytes
Step Temp E_pair E_bond PotEng KinEng TotEng E_mol Press Pxx Pyy Pzz Volume 
    2700   0.39249748  0.046819228 0.0013171816  0.048136409   0.52332997   0.57146638 0.0013171816   0.54882402   0.20381369   0.67745758   0.76520078    15.000145 
    2710   0.38797394  0.047918743 0.0014229469   0.04934169   0.51729858   0.56664027 0.0014229469     0.550755   0.18847376   0.69543208   0.76835917    15.000145 
    2720   0.39129263  0.049065604 0.0015354422  0.050601046   0.52172351   0.57232456 0.0015354422   0.55695023   0.19091514   0.70806257   0.77187298    15.000145 
    2730   0.38410162  0.050154376 0.0016401499  0.051794526   0.51213549   0.56393002 0.0016401499   0.55745851   0.19302421   0.70372799   0.77562334    15.000145 
    2740   0.39721036  0.051234637 0.0017360352  0.052970672   0.52961382   0.58258449 0.0017360352   0.56886488     0.202662   0.72068361   0.78324903    15.000145 
    2750   0.39641742  0.052282456 0.0018423058  0.054124762   0.52855656   0.58268132 0.0018423058   0.57230873   0.19841859   0.72291682   0.79559079    15.000145 
    2760   0.38519665  0.053229429 0.0019441561  0.055173585   0.51359553   0.56876911 0.0019441561   0.56958792   0.19489786   0.71072044   0.80314545    15.000145 
    2770   0.37085883  0.054214235 0.0020577484  0.056271983   0.49447845   0.55075043 0.0020577484   0.56508482   0.18125661   0.70719526   0.80680258    15.000145 
    2780   0.37834263  0.055242703 0.0021543251  0.057397028   0.50445684   0.56185386 0.0021543251    0.5727633   0.18844988   0.71758998   0.81225004    15.000145 
    2790   0.38930209  0.056299829 0.0022566063  0.058556435   0.51906946   0.57762589 0.0022566063   0.58232367   0.18563665   0.74707382   0.81426055    15.000145 
    2800   0.38742169  0.057396341  0.002354211  0.059750552   0.51656226   0.57631281  0.002354211   0.58539865   0.19655037   0.75176854   0.80787704    15.000145 
Loop time of 0.000947952 on 1 procs for 100 steps with 9 atoms

Pair  time (%) = 0.000277042 (29.2254)
Bond  time (%) = 2.36034e-05 (2.48994)
Neigh time (%) = 0 (0)
Comm  time (%) = 0.000276089 (29.1247)
Outpt time (%) = 0.000136614 (14.4115)
Other time (%) = 0.000234604 (24.7485)

Nlocal:    9 ave 9 max 9 min
Histogram: 1 0 0 0 0 0 0 0 0 0
Nghost:    333 ave 333 max 333 min
Histogram: 1 0 0 0 0 0 0 0 0 0
Neighs:    297 ave 297 max 297 min
Histogram: 1 0 0 0 0 0 0 0 0 0

Total # of neighbors = 297
Ave neighs/atom = 33
Ave special neighs/atom = 0.222222
Neighbor list builds = 0
Dangerous builds = 0
run 100
Memory usage per processor = 2.17056 Mbytes
Step Temp E_pair E_bond PotEng KinEng TotEng E_mol Press Pxx Pyy Pzz Volume 
    2800   0.38742169  0.057396341  0.002354211  0.059750552   0.51656226   0.57631281  0.002354211   0.58539865   0.19655037   0.75176854   0.80787704    15.000145 
    2810   0.39870804  0.058530014 0.0024339362   0.06096395   0.53161072   0.59257467 0.0024339362   0.59606055   0.20955227   0.75555332   0.82307607    15.000145 
    2820   0.40562205  0.059733118 0.0024914042  0.062224522    0.5408294   0.60305393 0.0024914042   0.60493095   0.21285468   0.77603896   0.82589922    15.000145 
    2830    0.4087859  0.061011449 0.0025240894  0.063535538   0.54504787   0.60858341 0.0025240894   0.61240785   0.21352574   0.79213198   0.83156582    15.000145 
    2840   0.39843173  0.062342775 0.0025623445   0.06490512   0.53124231   0.59614743 0.0025623445    0.6127285   0.20299455   0.79792497   0.83726598    15.000145 
    2850   0.39705666  0.063630629 0.0026304595  0.066261089   0.52940888   0.59566997 0.0026304595   0.61697312   0.19900632   0.81466972   0.83724331    15.000145 
    2860   0.38547032  0.064878732  0.002727381  0.067606113   0.51396043   0.58156654  0.002727381   0.61518743   0.20257843   0.80266514   0.84031872    15.000145 
    2870   0.38073922  0.066079738 0.0028038441  0.068883583   0.50765229   0.57653587 0.0028038441    0.6173038   0.20673202   0.80407278    0.8411066    15.000145 
    2880   0.38000969  0.067303545 0.0028714541  0.070174999   0.50667959   0.57685459 0.0028714541   0.62178028   0.20811982   0.81095226   0.84626876    15.000145 
    2890   0.37849016  0.068582355 0.0029417322  0.071524088   0.50465355   0.57617764 0.0029417322   0.62618505    0.2133363   0.81481533   0.85040352    15.000145 
    2900    0.3791101  0.069803753 0.0029863437  0.072790097   0.50548013   0.57827023 0.0029863437    0.6321367   0.21871803   0.81914908     0.858543    15.000145 
Loop time of 0.000952005 on 1 procs for 100 steps with 9 atoms

Pair  time (%) = 0.000264168 (27.7486)
Bond  time (%) = 2.98023e-05 (3.13048)
Neigh time (%) = 0 (0)
Comm  time (%) = 0.00027132 (28.4999)
Outpt time (%) = 0.000142097 (14.9261)
Other time (%) = 0.000244617 (25.695)

Nlocal:    9 ave 9 max 9 min
Histogram: 1 0 0 0 0 0 0 0 0 0
Nghost:    333 ave 333 max 333 min
Histogram: 1 0 0 0 0 0 0 0 0 0
Neighs:    296 ave 296 max 296 min
Histogram: 1 0 0 0 0 0 0 0 0 0

Total # of neighbors = 296
Ave neighs/atom = 32.8889
Ave special neighs/atom = 0.222222
Neighbor list builds = 0
Dangerous builds = 0
run 100
Memory usage per processor = 2.17056 Mbytes
Step Temp E_pair E_bond PotEng KinEng TotEng E_mol Press Pxx Pyy Pzz Volume 
    2900    0.3791101  0.069803753 0.0029863437  0.072790097   0.50548013   0.57827023 0.0029863437    0.6321367   0.21871803   0.81914908     0.858543    15.000145 
    2910   0.38989186  0.071034134 0.0030053297  0.074039464   0.51985581   0.59389527 0.0030053297   0.64409862   0.23265445    0.8346919   0.86494952    15.000145 
    2920    0.3852542  0.072226696 0.0029991693  0.075225865   0.51367226   0.58889813 0.0029991693   0.64815568   0.24477968   0.84105502   0.85863233    15.000145 
    2930   0.37569388  0.073392245 0.0029703596  0.076362604   0.50092518   0.57728778 0.0029703596   0.64974193   0.26142936   0.83455746   0.85323898    15.000145 
    2940   0.36559397  0.074439795 0.0029160228  0.077355818   0.48745863   0.56481445 0.0029160228   0.65093361   0.25907208   0.83250166   0.86122711    15.000145 
    2950   0.35615684  0.075428538  0.002848882   0.07827742   0.47487579   0.55315321  0.002848882   0.65249677   0.26317433   0.83101877    0.8632972    15.000145 
    2960   0.35309891  0.076413481 0.0027889392   0.07920242   0.47079854   0.55000096 0.0027889392   0.65731668   0.27005946   0.83255467   0.86933591    15.000145 
    2970   0.36283217  0.077391843 0.0027263882  0.080118231   0.48377623   0.56389446 0.0027263882   0.66902363   0.27414417   0.85864786   0.87427884    15.000145 
    2980   0.37287784  0.078357275 0.0026547578  0.081012033   0.49717045   0.57818248 0.0026547578   0.68097794   0.28783842   0.86759594   0.88749947    15.000145 
    2990   0.36687397  0.079309438 0.0025492689  0.081858707   0.48916529     0.571024 0.0025492689   0.68490625   0.29953904   0.86901723   0.88616248    15.000145 
    3000   0.35623717  0.080215888 0.0024500577  0.082665946   0.47498289   0.55764884 0.0024500577    0.6860377   0.29768465   0.87808335   0.88234511    15.000145 
Loop time of 0.000955105 on 1 procs for 100 steps with 9 atoms

Pair  time (%) = 0.000269413 (28.2077)
Bond  time (%) = 1.93119e-05 (2.02197)
Neigh time (%) = 0 (0)
Comm  time (%) = 0.000286102 (29.9551)
Outpt time (%) = 0.000141382 (14.8028)
Other time (%) = 0.000238895 (25.0125)

Nlocal:    9 ave 9 max 9 min
Histogram: 1 0 0 0 0 0 0 0 0 0
Nghost:    333 ave 333 max 333 min
Histogram: 1 0 0 0 0 0 0 0 0 0
Neighs:    296 ave 296 max 296 min
Histogram: 1 0 0 0 0 0 0 0 0 0

Total # of neighbors = 296
Ave neighs/atom = 32.8889
Ave special neighs/atom = 0.222222
Neighbor list builds = 0
Dangerous builds = 0
run 100
Memory usage per processor = 2.17056 Mbytes
Step Temp E_pair E_bond PotEng KinEng TotEng E_mol Press Pxx Pyy Pzz Volume 
    3000   0.35623717  0.080215888 0.0024500577  0.082665946   0.47498289   0.55764884 0.0024500577    0.6860377   0.29768465   0.87808335   0.88234511    15.000145 
    3010   0.35699878  0.081016496 0.0023477046    0.0833642   0.47599837   0.55936258 0.0023477046   0.69275495   0.30607227   0.88454888    0.8876437    15.000145 
    3020   0.35987429  0.081758668 0.0022478271  0.084006495   0.47983238   0.56383888 0.0022478271   0.70024777   0.31059618   0.88695733   0.90318979    15.000145 
    3030   0.36950674   0.08242115 0.0021455457  0.084566695   0.49267566   0.57724235 0.0021455457    0.7115183   0.32418093   0.89699321   0.91338077    15.000145 
[...]
   99230   0.93601905   0.73840885  0.037694936   0.77610379    1.2480254    2.0241292  0.037694936    4.6766064    4.5380186    2.3407206      7.15108    15.000145 
   99240   0.96740825   0.74660111  0.037570943   0.78417206    1.2898777    2.0740497  0.037570943    4.7135483    4.5916321    2.3687344    7.1802783    15.000145 
   99250   0.98030143   0.75411713  0.037348863     0.791466    1.3070686    2.0985346  0.037348863    4.7373971    4.6007848    2.4095896    7.2018168    15.000145 
   99260   0.98912962   0.76099319  0.037008035   0.79800123    1.3188395    2.1168407  0.037008035    4.7559232    4.6298005    2.4284783    7.2094907    15.000145 
   99270   0.97967541   0.76752297  0.036487424   0.80401039    1.3062339    2.1102443  0.036487424    4.7617837    4.6329258    2.4598009    7.1926244    15.000145 
   99280   0.98072545   0.77332176  0.035823739    0.8091455    1.3076339    2.1167794  0.035823739    4.7694695    4.6260574    2.4844503    7.1979008    15.000145 
   99290   0.97828272   0.77870354  0.035098734   0.81380227     1.304377    2.1181792  0.035098734    4.7732804    4.6438293     2.519009    7.1570029    15.000145 
   99300   0.97850106   0.78342391  0.034168585    0.8175925    1.3046681    2.1222606  0.034168585    4.7744896    4.6435464    2.5444753     7.135447    15.000145 
Loop time of 0.00101614 on 1 procs for 100 steps with 9 atoms

Pair  time (%) = 0.000313759 (30.8775)
Bond  time (%) = 2.95639e-05 (2.90943)
Neigh time (%) = 0 (0)
Comm  time (%) = 0.000294924 (29.0239)
Outpt time (%) = 0.00013566 (13.3505)
Other time (%) = 0.000242233 (23.8386)

Nlocal:    9 ave 9 max 9 min
Histogram: 1 0 0 0 0 0 0 0 0 0
Nghost:    358 ave 358 max 358 min
Histogram: 1 0 0 0 0 0 0 0 0 0
Neighs:    307 ave 307 max 307 min
Histogram: 1 0 0 0 0 0 0 0 0 0

Total # of neighbors = 307
Ave neighs/atom = 34.1111
Ave special neighs/atom = 0.222222
Neighbor list builds = 0
Dangerous builds = 0
run 100
Memory usage per processor = 2.17056 Mbytes
Step Temp E_pair E_bond PotEng KinEng TotEng E_mol Press Pxx Pyy Pzz Volume 
   99300   0.97850106   0.78342391  0.034168585    0.8175925    1.3046681    2.1222606  0.034168585    4.7744896    4.6435464    2.5444753     7.135447    15.000145 
   99310   0.96083657   0.78722615  0.033084262   0.82031041    1.2811154    2.1014258  0.033084262    4.7618076    4.6165861    2.5580258    7.1108108    15.000145 
   99320    0.9752107   0.79037831   0.03193917   0.82231748    1.3002809    2.1225984   0.03193917    4.7633141    4.6166549    2.5796964    7.0935911    15.000145 
   99330   0.94979847   0.79279171  0.030638267   0.82342998     1.266398    2.0898279  0.030638267    4.7395972    4.6008122    2.5819806    7.0359988    15.000145 
   99340   0.96097446    0.7946723  0.029298369   0.82397067    1.2812993    2.1052699  0.029298369    4.7331954    4.5879311    2.6137048    6.9979504    15.000145 
   99350   0.97363244   0.79594591  0.027936108   0.82388202    1.2981766    2.1220586  0.027936108    4.7304679    4.5832967    2.6334842    6.9746227    15.000145 
   99360   0.97577322   0.79612962  0.026547409   0.82267702     1.301031     2.123708  0.026547409    4.7181155    4.5680302    2.6542293    6.9320869    15.000145 
   99370   0.96889488   0.79488825  0.025112385   0.82000064    1.2918598    2.1118605  0.025112385    4.6958397    4.5393069    2.6703376    6.8778745    15.000145 
   99380   0.98101816   0.79260346  0.023717941    0.8163214    1.3080242    2.1243456  0.023717941     4.680385    4.5281311    2.6694471    6.8435768    15.000145 
   99390   0.98370511    0.7888951   0.02227408   0.81116918    1.3116068     2.122776   0.02227408    4.6545494    4.4909862    2.6852339     6.787428    15.000145 
   99400   0.99049143   0.78417923  0.020773276    0.8049525    1.3206552    2.1256077  0.020773276    4.6266329    4.4574755    2.6976987    6.7247244    15.000145 
Loop time of 0.00102282 on 1 procs for 100 steps with 9 atoms

Pair  time (%) = 0.000322104 (31.4918)
Bond  time (%) = 2.0504e-05 (2.00466)
Neigh time (%) = 0 (0)
Comm  time (%) = 0.000302315 (29.5571)
Outpt time (%) = 0.000133276 (13.0303)
Other time (%) = 0.000244617 (23.9161)

Nlocal:    9 ave 9 max 9 min
Histogram: 1 0 0 0 0 0 0 0 0 0
Nghost:    370 ave 370 max 370 min
Histogram: 1 0 0 0 0 0 0 0 0 0
Neighs:    307 ave 307 max 307 min
Histogram: 1 0 0 0 0 0 0 0 0 0

Total # of neighbors = 307
Ave neighs/atom = 34.1111
Ave special neighs/atom = 0.222222
Neighbor list builds = 0
Dangerous builds = 0
run 100
Memory usage per processor = 2.17056 Mbytes
Step Temp E_pair E_bond PotEng KinEng TotEng E_mol Press Pxx Pyy Pzz Volume 
   99400   0.99049143   0.78417923  0.020773276    0.8049525    1.3206552    2.1256077  0.020773276    4.6266329    4.4574755    2.6976987    6.7247244    15.000145 
   99410    1.0147387   0.77824078  0.019268773   0.79750956    1.3529849    2.1504944  0.019268773    4.6035133     4.428256    2.7185701     6.663714    15.000145 
   99420    1.0111245   0.77128115  0.017702581   0.78898373     1.348166    2.1371498  0.017702581    4.5609131    4.3756956    2.7223772    6.5846664    15.000145 
   99430    1.0297299   0.76323724  0.016217288   0.77945453    1.3729732    2.1524278  0.016217288    4.5267065    4.3224424    2.7318415    6.5258354    15.000145 
   99440    1.0413457   0.75443504  0.014720594   0.76915564    1.3884609    2.1576166  0.014720594    4.4857397     4.281017    2.7484604    6.4277418    15.000145 
   99450    1.0246794   0.74573331  0.013225832   0.75895914    1.3662392    2.1251984  0.013225832    4.4295396    4.2102831    2.7418216    6.3365141    15.000145 
   99460    1.0074648   0.73679104  0.011788483   0.74857952    1.3432863    2.0918659  0.011788483    4.3719294    4.1471087    2.7345251    6.2341543    15.000145 
   99470    1.0282493   0.72718865  0.010357767   0.73754642    1.3709991    2.1085455  0.010357767    4.3314806    4.0988108    2.7387907    6.1568403    15.000145 
   99480    1.0211324   0.71667137 0.0089697168   0.72564108    1.3615099    2.0871509 0.0089697168    4.2725436    4.0240097    2.7310184    6.0626027    15.000145 
   99490    1.0646491   0.70572144 0.0076650082   0.71338645    1.4195321    2.1329185 0.0076650082    4.2387918    3.9811286    2.7278424    6.0074045    15.000145 
   99500     1.093149    0.6941545 0.0064297659   0.70058427     1.457532    2.1581163 0.0064297659    4.1943959    3.9252823    2.7316749    5.9262306    15.000145 
Loop time of 0.00102115 on 1 procs for 100 steps with 9 atoms

Pair  time (%) = 0.000309944 (30.3526)
Bond  time (%) = 2.0504e-05 (2.00794)
Neigh time (%) = 0 (0)
Comm  time (%) = 0.00031352 (30.7028)
Outpt time (%) = 0.000138044 (13.5186)
Other time (%) = 0.000239134 (23.4182)

Nlocal:    9 ave 9 max 9 min
Histogram: 1 0 0 0 0 0 0 0 0 0
Nghost:    370 ave 370 max 370 min
Histogram: 1 0 0 0 0 0 0 0 0 0
Neighs:    305 ave 305 max 305 min
Histogram: 1 0 0 0 0 0 0 0 0 0

Total # of neighbors = 305
Ave neighs/atom = 33.8889
Ave special neighs/atom = 0.222222
Neighbor list builds = 0
Dangerous builds = 0
run 100
Memory usage per processor = 2.17056 Mbytes
Step Temp E_pair E_bond PotEng KinEng TotEng E_mol Press Pxx Pyy Pzz Volume 
   99500     1.093149    0.6941545 0.0064297659   0.70058427     1.457532    2.1581163 0.0064297659    4.1943959    3.9252823    2.7316749    5.9262306    15.000145 
   99510    1.1184781   0.68186771 0.0052544845    0.6871222    1.4913042    2.1784264 0.0052544845    4.1451211    3.8737588    2.7286891    5.8329154    15.000145 
   99520    1.1247985   0.66901414 0.0041647366   0.67317888    1.4997313    2.1729102 0.0041647366    4.0845538    3.7983803    2.7099249    5.7453562    15.000145 
   99530    1.1334311     0.655822 0.0031937772   0.65901577    1.5112414    2.1702572 0.0031937772    4.0238312    3.7061396    2.6966389    5.6687152    15.000145 
   99540     1.148053   0.64156248 0.0023509724   0.64391346    1.5307373    2.1746508 0.0023509724    3.9626434    3.6185247    2.6803963    5.5890092    15.000145 
   99550    1.1761165   0.62637157 0.0016241769   0.62799574    1.5681553     2.196151 0.0016241769    3.9051989    3.5321256     2.673399    5.5100719    15.000145 
   99560    1.1943574   0.61068604 0.0010213279   0.61170737    1.5924765    2.2041839 0.0010213279    3.8402621    3.4616474    2.6513468     5.407792    15.000145 
   99570    1.2179954   0.59483564 0.00054268831   0.59537832    1.6239939    2.2193722 0.00054268831    3.7767887    3.3786448    2.6484264    5.3032949    15.000145 
   99580    1.2609165      0.57875 0.00020322648   0.57895322     1.681222    2.2601752 0.00020322648    3.7216198    3.2910807    2.6468822    5.2268964    15.000145 
   99590    1.2843176   0.56250059 2.4590675e-05   0.56252518    1.7124235    2.2749487 2.4590675e-05    3.6544254    3.2048448    2.6208036    5.1376277    15.000145 
   99600    1.2865881   0.54637374 1.9791864e-05   0.54639353    1.7154507    2.2618443 1.9791864e-05    3.5759598    3.1282997    2.5817258    5.0178539    15.000145 
Loop time of 0.00101185 on 1 procs for 100 steps with 9 atoms

Pair  time (%) = 0.00030303 (29.9482)
Bond  time (%) = 2.12193e-05 (2.09708)
Neigh time (%) = 0 (0)
Comm  time (%) = 0.000310659 (30.7022)
Outpt time (%) = 0.000135899 (13.4307)
Other time (%) = 0.000241041 (23.8219)

Nlocal:    9 ave 9 max 9 min
Histogram: 1 0 0 0 0 0 0 0 0 0
Nghost:    370 ave 370 max 370 min
Histogram: 1 0 0 0 0 0 0 0 0 0
Neighs:    307 ave 307 max 307 min
Histogram: 1 0 0 0 0 0 0 0 0 0

Total # of neighbors = 307
Ave neighs/atom = 34.1111
Ave special neighs/atom = 0.222222
Neighbor list builds = 0
Dangerous builds = 0
run 100
Memory usage per processor = 2.17056 Mbytes
Step Temp E_pair E_bond PotEng KinEng TotEng E_mol Press Pxx Pyy Pzz Volume 
   99600    1.2865881   0.54637374 1.9791864e-05   0.54639353    1.7154507    2.2618443 1.9791864e-05    3.5759598    3.1282997    2.5817258    5.0178539    15.000145 
   99610    1.3065701   0.53041862 0.00019060692   0.53060923    1.7420935    2.2727027 0.00019060692    3.5075069    3.0213796    2.5623757    4.9387654    15.000145 
   99620    1.3300454   0.51439623 0.00053722698   0.51493346    1.7733938    2.2883273 0.00053722698    3.4405033    2.9318582    2.5381594    4.8514922    15.000145 
   99630    1.3601547   0.49847302 0.0010700336   0.49954306    1.8135395    2.3130826 0.0010700336    3.3768042    2.8425829    2.5176839    4.7701458    15.000145 
   99640    1.3533863   0.48283252 0.0017763934   0.48460891    1.8045151     2.289124 0.0017763934      3.29447    2.7327652    2.5013309     4.649314    15.000145 
   99650    1.3813762   0.46778803 0.0026620558   0.47045009    1.8418349     2.312285 0.0026620558    3.2324769     2.649996    2.4751757    4.5722589    15.000145 
   99660    1.3906377   0.45322239 0.0036898657   0.45691225    1.8541836    2.3110958 0.0036898657    3.1627939    2.5602367    2.4580262    4.4701187    15.000145 
   99670    1.3998142   0.43928893 0.0048697342   0.44415866    1.8664189    2.3105776 0.0048697342    3.0955179    2.4738567    2.4457402    4.3669568    15.000145 
   99680    1.3785823   0.42583293 0.0062200014   0.43205293    1.8381098    2.2701627 0.0062200014    3.0134928    2.3540968    2.4185212    4.2678605    15.000145 
   99690    1.4220104   0.41251201  0.007714954   0.42022697    1.8960139    2.3162409  0.007714954    2.9666347    2.2813052    2.4221759     4.196423    15.000145 
   99700    1.4188143    0.3996265 0.0093908443   0.40901734    1.8917524    2.3007698 0.0093908443    2.8977703     2.173112    2.4048804    4.1153187    15.000145 
Loop time of 0.00104308 on 1 procs for 100 steps with 9 atoms

Pair  time (%) = 0.000303984 (29.1429)
Bond  time (%) = 2.36034e-05 (2.26286)
Neigh time (%) = 0 (0)
Comm  time (%) = 0.000322819 (30.9486)
Outpt time (%) = 0.00014019 (13.44)
Other time (%) = 0.000252485 (24.2057)

Nlocal:    9 ave 9 max 9 min
Histogram: 1 0 0 0 0 0 0 0 0 0
Nghost:    386 ave 386 max 386 min
Histogram: 1 0 0 0 0 0 0 0 0 0
Neighs:    309 ave 309 max 309 min
Histogram: 1 0 0 0 0 0 0 0 0 0

Total # of neighbors = 309
Ave neighs/atom = 34.3333
Ave special neighs/atom = 0.222222
Neighbor list builds = 0
Dangerous builds = 0
run 100
Memory usage per processor = 2.17056 Mbytes
Step Temp E_pair E_bond PotEng KinEng TotEng E_mol Press Pxx Pyy Pzz Volume 
   99700    1.4188143    0.3996265 0.0093908443   0.40901734    1.8917524    2.3007698 0.0093908443    2.8977703     2.173112    2.4048804    4.1153187    15.000145 
   99710    1.4210647   0.38728871  0.011228053   0.39851677    1.8947529    2.2932697  0.011228053    2.8342258    2.0965335    2.3663504    4.0397936    15.000145 
   99720    1.4185478   0.37525392   0.01320952   0.38846344    1.8913971    2.2798605   0.01320952    2.7692007    2.0143882    2.3511952    3.9420186    15.000145 
   99730    1.4191876   0.36388737  0.015273572   0.37916094    1.8922502    2.2714111  0.015273572    2.7135432    1.9291858    2.3322692    3.8791746    15.000145 
   99740    1.4236641   0.35314858  0.017351669   0.37050025    1.8982189    2.2687191  0.017351669     2.663759    1.8283056    2.3160414    3.8469301    15.000145 
   99750    1.4323524   0.34308549  0.019406946   0.36249243    1.9098033    2.2722957  0.019406946    2.6193894    1.7419815    2.3126721    3.8035147    15.000145 
   99760    1.4153969   0.33353694  0.021562524   0.35509946    1.8871959    2.2422954  0.021562524    2.5629346    1.6632202    2.2837343    3.7418494    15.000145 
   99770    1.4369615   0.32438904  0.023753867    0.3481429    1.9159486    2.2640915  0.023753867    2.5288893    1.5910026     2.268981    3.7266844    15.000145 
   99780    1.4443107   0.31569675   0.02597309   0.34166984    1.9257476    2.2674174   0.02597309    2.4891571    1.5338795    2.2541024    3.6794894    15.000145 
   99790    1.4491767   0.30750926  0.028308363   0.33581762    1.9322356    2.2680532  0.028308363    2.4496564    1.4921395    2.2348279    3.6220019    15.000145 
   99800    1.4425875   0.29984873  0.030747013   0.33059574      1.92345    2.2540457  0.030747013    2.4056173    1.4190503    2.2379766    3.5598249    15.000145 
Loop time of 0.0010469 on 1 procs for 100 steps with 9 atoms

Pair  time (%) = 0.000311852 (29.7882)
Bond  time (%) = 2.67029e-05 (2.55067)
Neigh time (%) = 0 (0)
Comm  time (%) = 0.000325203 (31.0635)
Outpt time (%) = 0.000136852 (13.0722)
Other time (%) = 0.000246286 (23.5254)

Nlocal:    9 ave 9 max 9 min
Histogram: 1 0 0 0 0 0 0 0 0 0
Nghost:    386 ave 386 max 386 min
Histogram: 1 0 0 0 0 0 0 0 0 0
Neighs:    308 ave 308 max 308 min
Histogram: 1 0 0 0 0 0 0 0 0 0

Total # of neighbors = 308
Ave neighs/atom = 34.2222
Ave special neighs/atom = 0.222222
Neighbor list builds = 0
Dangerous builds = 0
run 100
Memory usage per processor = 2.17056 Mbytes
Step Temp E_pair E_bond PotEng KinEng TotEng E_mol Press Pxx Pyy Pzz Volume 
   99800    1.4425875   0.29984873  0.030747013   0.33059574      1.92345    2.2540457  0.030747013    2.4056173    1.4190503    2.2379766    3.5598249    15.000145 
   99810    1.4735352   0.29271487  0.033294484   0.32600935    1.9647136     2.290723  0.033294484    2.3833068    1.3790127    2.2299169    3.5409908    15.000145 
   99820    1.4858423   0.28616844  0.035897656   0.32206609    1.9811231    2.3031892  0.035897656    2.3532135    1.3288258     2.203761    3.5270538    15.000145 
   99830    1.4958825    0.2802819  0.038562338   0.31884423    1.9945099    2.3133542  0.038562338    2.3242382    1.2894174    2.1781948    3.5051025    15.000145 
   99840    1.4964359   0.27477491  0.041273219   0.31604813    1.9952479     2.311296  0.041273219    2.2916756     1.245783    2.1529916    3.4762521    15.000145 
   99850    1.5059748   0.26970604   0.04399262   0.31369866    2.0079664    2.3216651   0.04399262    2.2654675    1.1953043    2.1418052    3.4592931    15.000145 
   99860    1.4953357   0.26508753  0.046781465     0.311869    1.9937809    2.3056499  0.046781465    2.2299159    1.1598843     2.127445    3.4024184    15.000145 
   99870    1.4857527   0.26094012  0.049661801   0.31060192    1.9810036    2.2916055  0.049661801    2.1964154    1.1082921      2.11843     3.362524    15.000145 
   99880    1.4738918   0.25729143  0.052502242   0.30979367    1.9651891    2.2749828  0.052502242    2.1636646    1.0648965    2.1159479    3.3101495    15.000145 
   99890    1.4759894   0.25414191  0.055273084     0.309415    1.9679859    2.2774009  0.055273084    2.1404637    1.0298121    2.0843845    3.3071945    15.000145 
   99900    1.4895542   0.25146042  0.058065505   0.30952592    1.9860723    2.2955982  0.058065505    2.1251147    1.0047983     2.080405    3.2901408    15.000145 
Loop time of 0.00104213 on 1 procs for 100 steps with 9 atoms

Pair  time (%) = 0.000310898 (29.833)
Bond  time (%) = 2.21729e-05 (2.12766)
Neigh time (%) = 0 (0)
Comm  time (%) = 0.00032258 (30.954)
Outpt time (%) = 0.000137568 (13.2006)
Other time (%) = 0.000248909 (23.8847)

Nlocal:    9 ave 9 max 9 min
Histogram: 1 0 0 0 0 0 0 0 0 0
Nghost:    386 ave 386 max 386 min
Histogram: 1 0 0 0 0 0 0 0 0 0
Neighs:    309 ave 309 max 309 min
Histogram: 1 0 0 0 0 0 0 0 0 0

Total # of neighbors = 309
Ave neighs/atom = 34.3333
Ave special neighs/atom = 0.222222
Neighbor list builds = 0
Dangerous builds = 0
run 100
Memory usage per processor = 2.17056 Mbytes
Step Temp E_pair E_bond PotEng KinEng TotEng E_mol Press Pxx Pyy Pzz Volume 
   99900    1.4895542   0.25146042  0.058065505   0.30952592    1.9860723    2.2955982  0.058065505    2.1251147    1.0047983     2.080405    3.2901408    15.000145 
   99910    1.4771924   0.24906998  0.060897876   0.30996785    1.9695899    2.2795578  0.060897876    2.0968503   0.99113087    2.0598097    3.2396103    15.000145 
   99920    1.4761189   0.24715915  0.063666652    0.3108258    1.9681585    2.2789843  0.063666652    2.0766926    0.9635872    2.0363006    3.2301901    15.000145 
   99930     1.483845   0.24580929  0.066335698   0.31214499      1.97846     2.290605  0.066335698    2.0648644   0.96196368    2.0237937    3.2088358    15.000145 
   99940    1.4760029   0.24488447  0.068991378   0.31387585    1.9680039    2.2818797  0.068991378    2.0464156   0.96022455    2.0023381    3.1766841    15.000145 
   99950    1.4898451   0.24418588  0.071720873   0.31590675    1.9864601    2.3023669  0.071720873    2.0399951   0.96690845    1.9961979     3.156879    15.000145 
   99960    1.4622571   0.24373242  0.074435033   0.31816745    1.9496762    2.2678436  0.074435033    2.0122677   0.94100325    1.9744756    3.1213242    15.000145 
   99970    1.4685975   0.24353879  0.077194202   0.32073299      1.95813     2.278863  0.077194202    2.0038491   0.92786449    1.9707884    3.1128944    15.000145 
   99980    1.4679707   0.24379386  0.079995394   0.32378926    1.9572943    2.2810835  0.079995394    1.9959684   0.91522341    1.9575031    3.1151788    15.000145 
   99990    1.4681397   0.24433944  0.082785869    0.3271253    1.9575196    2.2846449  0.082785869    1.9895236   0.90934254    1.9468174    3.1124108    15.000145 
  100000    1.4827442   0.24503751  0.085639535   0.33067704    1.9769922    2.3076693  0.085639535    1.9909699   0.90612871    1.9487234    3.1180575    15.000145 
Loop time of 0.158718 on 1 procs for 100 steps with 9 atoms

Pair  time (%) = 0.000314474 (0.198134)
Bond  time (%) = 2.16961e-05 (0.0136696)
Neigh time (%) = 0 (0)
Comm  time (%) = 0.000317335 (0.199936)
Outpt time (%) = 0.157816 (99.4316)
Other time (%) = 0.000248671 (0.156674)

Nlocal:    9 ave 9 max 9 min
Histogram: 1 0 0 0 0 0 0 0 0 0
Nghost:    386 ave 386 max 386 min
Histogram: 1 0 0 0 0 0 0 0 0 0
Neighs:    305 ave 305 max 305 min
Histogram: 1 0 0 0 0 0 0 0 0 0

Total # of neighbors = 305
Ave neighs/atom = 33.8889
Ave special neighs/atom = 0.222222
Neighbor list builds = 0
Dangerous builds = 0
